/*--------------------------------*- C++ -*----------------------------------*\
  =========                 |
  \\      /  F ield         | OpenFOAM: The Open Source CFD Toolbox
   \\    /   O peration     | Website:  https://openfoam.org
    \\  /    A nd           | Version:  11
     \\/     M anipulation  |
\*---------------------------------------------------------------------------*/
FoamFile
{
    format      ascii;
    class       volScalarField;
    location    "0";
    object      p;
}
// * * * * * * * * * * * * * * * * * * * * * * * * * * * * * * * * * * * * * //

dimensions      [1 -1 -2 0 0 0 0];

internalField   nonuniform List<scalar> 
2557
(
5000000
85586.5335058
85196.732192
84796.9828157
84422.452581
84003.1210436
83632.0967384
83262.7115696
82894.957637
82437.6985754
82073.5860396
81711.0816465
81350.178679
80990.8701499
80633.1489692
80277.0080439
79922.4403185
79569.4387859
79217.9964859
78868.106502
78519.7619571
78172.956011
77827.681858
77483.9327252
77141.7018715
76800.9825869
85586.6250602
85196.7322182
84796.982907
84422.4527851
84003.1209496
83632.096572
83262.7116571
82894.9579747
82437.6989155
82073.5860641
81711.0815121
81350.1785099
80990.8700012
80633.1488548
80277.0079611
79922.4402604
79569.4387455
79217.996458
78868.1064826
78519.7619437
78172.9560019
77827.6818519
77483.9327213
77141.7018694
76800.9825862
85573.9961757
85173.1852714
84796.9856832
84422.4541905
84003.1203805
83632.0959463
83262.7118714
82894.9590482
82437.6997164
82073.5860117
81711.0811323
81350.1781004
80990.8696645
80633.1486051
80277.007784
79922.4401371
79569.4386602
79217.996399
78868.1064419
78519.7619156
78172.9559826
77827.6818389
77483.932713
77141.7018648
76800.9825848
85551.8798384
85173.3903801
84797.0004289
84375.7850861
84003.1173505
83632.0944108
83262.7121096
82894.9618874
82437.7009251
82073.5855002
81711.0803041
81350.1773894
80990.8691395
80633.148237
80277.0075305
79922.4399631
79569.4385405
79217.9963164
78868.1063846
78519.761876
78172.9559554
77827.6818206
77483.9327014
77141.7018583
76800.9825827
85553.1762073
85173.6168219
84750.1404066
84375.7880958
84003.1148442
83632.091881
83262.7110567
82894.970727
82437.7008663
82073.5834823
81711.0787278
81350.1763403
80990.8684535
80633.1477838
80277.0072266
79922.4397566
79569.4383988
79217.9962184
78868.1063166
78519.7618287
78172.9559228
77827.6817987
77483.9326873
77141.7018505
76800.9825802
85553.3012476
85173.6671016
84750.1555629
84375.7912712
84003.1133077
83632.0882246
83262.7021399
82803.3931431
82437.6852038
82073.5781893
81711.0764116
81350.1751062
80990.8677126
80633.1473082
80277.0069096
79922.4395406
79569.4382496
79217.9961144
78868.1062438
78519.7617779
78172.9558876
77827.6817748
77483.932672
77141.701842
76800.9825774
85553.3077964
85173.6715256
84750.1571467
84375.7916416
84003.1120737
83632.0855977
83262.6976287
82803.4059601
82437.6843404
82073.5762846
81711.07501
81350.1741747
80990.8670923
80633.1468874
80277.0066194
79922.4393379
79569.4381069
79217.9960136
78868.1061725
78519.7617276
78172.9558525
77827.681751
77483.9326567
77141.7018334
76800.9825747
85553.3076752
85173.6714873
84750.1570919
84375.7913614
84003.1113587
83632.0846901
83262.697607
82803.4097635
82437.6851232
82073.5758708
81711.0743741
81350.1736112
80990.866654
80633.1465614
80277.0063809
79922.4391648
79569.4379818
79217.9959234
78868.1061078
78519.7616815
78172.9558201
77827.6817288
77483.9326424
77141.7018254
76800.9825721
85553.3073752
85173.6712279
84750.1568679
84375.7910876
84003.1110432
83632.0845355
83262.6981081
82803.4111844
82437.6857661
82073.575896
81711.074134
81350.17331
80990.8663763
80633.1463326
80277.0062022
79922.4390292
79569.4378806
79217.9958489
78868.1060536
78519.7616425
78172.9557925
77827.6817098
77483.93263
77141.7018185
76800.9825699
85553.3058283
85173.669967
84750.1563121
84375.7907712
84003.1109005
83632.0845844
83262.698483
82803.4118079
82437.6861552
82073.5760012
81711.0740615
81350.1731617
80990.866214
80633.1461851
80277.0060794
79922.438932
79569.4378061
79217.9957929
78868.1060121
78519.7616123
78172.955771
77827.6816949
77483.9326204
77141.701813
76800.9825681
85553.2793628
85173.6554462
84750.1533353
84375.7900155
84003.1107626
83632.0846469
83262.6987032
82803.4120984
82437.6863655
82073.576086
81711.0740481
81350.1730945
80990.8661276
80633.1460998
80277.0060047
79922.4388708
79569.4377579
79217.9957561
78868.1059846
78519.7615921
78172.9557565
77827.6816848
77483.9326138
77141.7018093
76800.9825669
85552.9557176
85173.5716427
84750.1449758
84375.7888668
84003.1106523
83632.0846917
83262.6988112
82803.4122159
82437.686456
82073.5761289
81711.074049
81350.1730694
80990.866091
80633.1460616
80277.0059701
79922.4388418
79569.4377348
79217.9957382
78868.1059711
78519.7615822
78172.9557493
77827.6816798
77483.9326105
77141.7018075
76800.9825663
5000000
85610.2152219
85610.3558277
85610.3926901
85621.1487885
85620.9316023
85645.5838735
85646.6755981
85648.1513137
85648.265366
85648.3592259
85648.3650107
85648.3691323
85648.3692441
85648.3690921
85648.369011
85648.368796
85648.3687193
85648.3682063
85648.3676476
85648.3589254
85648.3484661
85648.1983153
85648.0281487
85646.571679
85793.9702067
85793.9675231
85243.8864091
85243.886439
85586.6053242
85808.1482662
85807.164595
85243.8863964
85243.884731
85574.1281912
85807.1289973
85807.1209723
85267.479282
85267.6908789
85551.2029792
85828.912809
85829.5657131
85267.8279098
85268.1590667
85553.0515666
85829.8927684
85829.9006235
85268.2157217
85268.2847448
85553.2930253
85829.9053278
85829.905424
85268.2912244
85268.2969148
85553.3075459
85829.9051536
85829.9050472
85268.2972127
85268.2972561
85553.3077492
85829.9047504
85829.9046781
85268.2971987
85268.2970044
85553.3074607
85829.9044751
85829.9044258
85268.2969197
85268.2961604
85553.3066558
85829.904214
85829.9040791
85268.2953366
85268.2849727
85553.293412
85829.9020304
85829.8992904
85268.2749874
85268.1926532
85553.1115176
85829.8194864
85829.655898
85268.139952
85267.9754325
85552.0491798
85780.7803123
85782.0972954
85610.2195131
85793.9619415
85805.9712867
85622.5006512
85781.8680804
85782.3332894
85761.2319128
85766.7708627
85622.2762656
85814.8045719
85807.4786427
85620.8730506
85760.7070875
85760.7739474
85739.7717082
85761.0306019
85621.025849
85807.4448149
85827.2252159
85647.4659874
85742.3861415
85741.4306465
85742.9869263
85742.8126741
85647.9188132
85829.8000815
85829.8708988
85648.3204276
85743.0891636
85743.0585315
85743.1086212
85743.1026494
85648.3467742
85829.9037058
85829.9049055
85648.3676259
85743.1123457
85743.1112387
85743.1128283
85743.112748
85648.368731
85829.9053761
85829.9052688
85648.3692463
85743.11274
85743.1127984
85743.1125442
85743.1126518
85648.3691858
85829.904942
85829.9048385
85648.3689513
85743.1123977
85743.112458
85743.1122432
85743.1123278
85648.3688819
85829.9046071
85829.9045353
85648.3686409
85743.1121235
85743.1121762
85743.1118743
85743.1120349
85648.3684957
85829.9043703
85829.9043002
85648.3664948
85743.1110815
85743.1116063
85743.107498
85743.1099411
85648.3640417
85829.9038091
85829.9032427
85648.3272566
85743.0912126
85743.1023282
85743.0094214
85743.066583
85648.284417
85829.8926047
85829.874411
85647.7103302
85742.5318621
85742.8698942
85740.6673902
85741.8107371
85647.1934376
85829.2451436
85828.5049932
85885.9957532
85885.9997363
85432.7644359
85432.7646231
85586.5347054
84890.8746978
84890.8747241
85196.73222
84515.9298002
84515.9298995
84796.982845
84189.2501193
84189.2501499
84422.4526883
83817.4035308
83817.4034787
84003.1210194
85432.7700136
85432.7600953
85574.8643129
84890.8748014
84890.8769386
85173.175079
84515.9299915
84515.9307618
84796.9842276
84189.2502275
84189.2503729
84422.4535654
83817.4033423
83817.403069
84003.1207826
85432.6392146
85432.6559595
85573.9675799
84890.8796266
84890.899966
85173.3144814
84515.93134
84515.9340768
84796.9956322
84189.2505594
84189.2503269
84422.4604738
83817.4025599
83817.4016794
84003.1194157
85457.1036431
85457.4753728
85552.4462694
84890.910046
84890.9380996
85173.5814863
84515.9325444
84562.7434933
84797.0182066
84189.2459236
84189.2445309
84375.7859615
83817.4003707
83817.3990447
84003.1158558
85458.042943
85458.1052706
85553.2422102
84890.9440726
84890.9559462
85173.6624937
84562.7495165
84562.7558453
84750.1516905
84189.244329
84189.2444431
84375.7901901
83817.3977573
83817.3964598
84003.1140477
85458.1659685
85458.1703319
85553.305111
84890.9576496
84890.959269
85173.6712983
84562.7585723
84562.7595701
84750.1568142
84189.2444008
84189.244184
84375.7916337
83817.395187
83817.3940993
84003.1126328
85458.1735592
85458.173651
85553.3078519
84890.959403
84890.9593669
85173.6715412
84562.75984
84562.759834
84750.1571682
84189.2438963
84189.2436198
84375.7915158
83817.3932909
83817.3927509
84003.1116524
85458.1735178
85458.1734497
85553.3076089
84890.9593378
84890.9591671
85173.6713046
84562.7597381
84562.7596203
84750.1569881
84189.2433919
84189.2432182
84375.7912173
83817.3924217
83817.3922373
84003.1111658
85458.1732163
85458.1730841
85553.3072631
84890.9591232
84890.9588163
85173.6706059
84562.7594933
84562.7593292
84750.1566899
84189.2430876
84189.2429797
84375.790953
83817.3921438
83817.3921015
84003.1109628
85458.1714066
85458.1694222
85553.3041113
84890.9586023
84890.9564941
85173.6624061
84562.7590479
84562.7584974
84750.155392
84189.2428677
84189.2427223
84375.7904785
83817.3920835
83817.3920727
84003.1108368
85458.1429651
85458.1162135
85553.252445
84890.9547897
84890.9444876
85173.6027129
84562.7574854
84562.755963
84750.1496308
84189.2425245
84189.2422965
84375.789406
83817.3920608
83817.3920505
84003.1106881
85457.8711929
85457.7026094
85552.7100129
84890.9394158
84890.9305508
85173.4876481
84562.7543759
84562.7537805
84750.1423219
84189.2421342
84189.2422001
84375.7888127
83817.3920562
83817.3921013
84003.1107178
85610.2172593
85782.1005102
85782.1031137
85886.0003531
85886.4093587
85243.8864151
85385.5058143
85385.5057243
85385.5070839
85385.5059409
85243.886422
85586.5359758
85432.7649131
85432.7680902
85243.8855258
85385.4999671
85385.5075359
85385.4514122
85385.4905628
85243.8848863
85574.7427961
85432.7413897
85432.6588626
85267.5117595
85361.8690801
85385.442463
85362.1665025
85361.9795011
85267.5794998
85574.0773369
85456.3574907
85456.696641
85267.9627043
85362.6352009
85362.4057644
85362.9473429
85362.8183309
85268.0754345
85552.8261465
85457.7520288
85457.933461
85268.2514612
85363.0806063
85363.0304857
85363.1248878
85363.1092514
85268.2727242
85553.2760971
85458.1392049
85458.1569865
85268.2945541
85363.1371549
85363.1330636
85363.1399702
85363.1391028
85268.2961769
85553.3068376
85458.1723527
85458.1732258
85268.2973019
85363.1404159
85363.140314
85363.1403673
85363.1404129
85268.2972983
85553.3078196
85458.173639
85458.1735849
85268.2971364
85363.1402398
85363.1403057
85363.1401013
85363.1401731
85268.2970727
85553.3075395
85458.1733811
85458.1733065
85268.2967942
85363.1398762
85363.1400115
85363.1391642
85363.1396359
85268.2965768
85553.307061
85458.1728474
85458.1723756
85268.2937213
85363.1362919
85363.138209
85363.125442
85363.132541
85268.2906401
85553.3005649
85458.1654359
85458.1576552
85268.2582452
85363.0900017
85363.112518
85362.9946922
85363.0527169
85268.2317486
85553.2022112
85458.0694507
85457.9917355
85268.0772901
85362.8051293
85362.9114604
85362.6063201
85362.6918194
85268.0159911
85552.378264
85457.50351
85457.3328598
85933.5404632
85933.6556218
5000000
85527.3603408
85527.3603619
85586.5335448
85078.9705045
85078.9705067
85196.7321956
84703.1947903
84703.1947956
84796.9828176
83447.1997448
83447.1997284
83632.0966915
85527.3919654
85527.4134347
85574.8383893
85078.9706255
85078.9708871
85196.7321891
84703.1949019
84703.1950341
84796.9830683
83447.1996836
83447.1995909
83632.0963433
85078.981465
85078.9963457
85173.2080706
83447.1994183
83447.19912
83632.0953134
85079.0962184
85079.1367346
85173.4660072
83447.1986288
83447.197821
83632.0932842
85079.2210185
85079.2348276
85173.6399438
83447.1964357
83447.1941432
83632.0901424
85079.2520352
85079.2536842
85173.6695296
83447.19103
83447.1887118
83632.0866441
85079.255085
85079.2551276
85173.671591
83447.1874894
83447.1869421
83632.0849928
85079.2550235
85079.2549682
85173.6714287
83447.1867841
83447.1867947
83632.0845646
85079.2547838
85079.2546927
85173.6711191
83447.18688
83447.1869798
83632.0845515
85079.2538461
85079.2529972
85173.668746
83447.1870759
83447.1871554
83632.0846184
85079.2443023
85079.2372672
85173.6441605
83447.1872182
83447.187264
83632.0846695
85079.1955775
85079.177278
85173.5368594
83447.1872972
83447.1873218
83632.0847223
5000000
85610.2152836
85681.2998478
85681.2996972
85682.1596819
85681.5418434
85610.2627278
85610.5077133
85682.8123473
85682.3910818
85793.970264
85880.057385
85880.0556075
85880.3654157
85880.057701
85793.9703273
85586.5584378
85527.369754
85527.3785495
85810.462507
85810.3313825
5000000
85782.4171202
85705.3643737
85706.4323247
85705.0237113
85705.1889525
85782.2723042
85610.2439003
85681.4313301
85681.3138782
85886.4419285
85794.1480505
85880.4083594
85794.3207162
85670.6334565
85682.8487443
85622.5571537
85784.22181
85707.5191103
85707.0412111
85706.8330686
85707.5038352
85784.3133706
85810.3679721
85850.9547123
85854.4864961
85885.9964337
85927.6660564
85927.5936599
85927.9635376
85927.6930732
85885.99671
5000000
85933.6973216
85934.1148655
85432.7644513
85480.0493287
85480.0493056
85480.0496335
85480.0494064
85432.7644986
85586.5336066
85527.3604494
85527.3607674
84890.8746984
84984.8705582
84984.8705569
84984.8705928
84984.8705646
84890.8747024
85196.7321996
85078.9705152
85078.9705429
84515.9298132
84609.5105042
84609.5104947
84609.5105705
84609.5105274
84515.9298443
84796.9828239
84703.1948091
84703.1948387
84890.8750294
84984.8709921
84984.8706904
84984.8738533
84984.8718428
84890.8756161
85196.7323761
85078.9718382
85078.9742149
84796.9834444
84703.1952979
84703.1957874
84890.8842463
84984.887171
84984.8785336
84984.9185514
84984.9006263
84890.8911016
85173.2509441
85079.0212249
85079.0558061
84890.920269
84984.9598902
84984.9391583
84984.9934708
84984.9784449
84890.9297347
85173.53125
85079.1724147
85079.2006238
84890.949051
84985.0124312
84985.0045143
84985.0213005
84985.0178953
84890.9534134
85173.6541854
85079.2436613
85079.2489867
84890.9585109
84985.0244702
84985.0233438
84985.0253569
84985.025073
84890.9590519
85173.6707391
85079.2545271
85079.254923
84890.9594112
84985.0255068
84985.0254798
84985.025454
84985.0254938
84890.9594181
85173.6715821
85079.255114
85079.255074
84890.9592727
84985.0253543
84985.0254083
84985.0252446
84985.0253023
84890.959235
85173.6713686
85079.2549118
85079.254852
84890.9590421
84985.0251067
84985.0251848
84985.0248178
84985.0249987
84890.9589653
85173.6709387
85079.2545514
85079.2543035
84890.9582096
84985.023941
84985.0245047
84985.021271
84985.0229518
84890.9575616
85173.6664745
85079.2514588
85079.2487733
84890.9523221
84985.0143817
84985.018544
84985.0006297
84985.0084243
84890.9487988
85173.6269728
85079.2269048
85079.2128295
84890.9347426
84984.982181
84984.9914283
84984.9728307
84984.9750452
84890.9312782
85173.5053893
85079.1619675
85079.1551015
85681.3058417
85681.3001039
85610.2153835
85782.1031807
85705.0080506
85705.0142911
85705.0076338
85705.0077874
85782.1031484
85934.1585258
85934.9574197
85886.0401965
85928.6560278
85927.9940232
85928.0952725
85928.9368295
85886.0616022
85527.3617685
85527.3643761
85586.5488559
85432.7655041
85480.0515203
85480.0502191
85957.3441727
85957.4127106
5000000
83078.6312028
83078.6312735
83262.7115969
82711.6899022
82711.6900016
82894.9577364
83078.6314388
83078.6317175
83262.711749
82711.6902654
82711.6906593
82894.9583786
84703.1966151
84703.1978667
84796.9880414
83078.6321535
83078.6328032
83262.7120105
83078.6337383
83078.6349324
83262.7119714
83078.6359095
83078.634174
83262.708209
83078.6188609
83078.6140752
83262.698656
83078.6148776
83078.6153215
83262.6974026
83078.6162985
83078.6167807
83262.6978466
83078.6173085
83078.6175846
83262.6983104
83078.6178565
83078.6180031
83262.6986067
83078.6181397
83078.6182107
83262.6987673
83078.6182684
83078.6182908
83262.6988347
5000000
5000000
5000000
85668.0422178
85668.5719243
85621.4771135
85620.8212661
85667.5602737
85667.7171009
85793.9702086
85829.5813437
85829.5813372
85829.6070235
85829.590976
85793.9711563
85935.3025708
85932.8185462
85243.8864097
85291.0667276
85291.0667262
85291.0668301
85291.0668183
85243.8864418
85243.8862668
85291.0664626
85291.0667549
85574.3177282
85527.1233622
85527.0198651
85807.0087256
85849.8373479
85849.8723873
5000000
5000000
85779.0314725
85754.615041
85755.7465277
85752.4481605
85752.4605135
85782.0888421
85793.9352334
85829.3840375
85829.5963611
85831.3110608
85832.9269429
85803.4012379
85762.1830758
85715.5277563
85714.7561483
85718.2261915
85716.7261562
85763.941903
85621.8849795
85669.2921118
85670.0463366
85849.9817286
85850.2648012
85808.3596603
85714.329311
85714.1386189
85760.5900471
85885.9958476
85903.8199902
85903.8190307
85903.8559006
85903.8434589
85885.998297
85958.2800648
85959.0693788
85432.7713919
85480.070287
85480.0635223
85480.0574274
85480.0717485
85432.769396
85574.8779909
85527.4294616
85527.4113886
85782.1033932
85752.4441163
85752.4451103
85752.4431807
85752.4431856
85782.1031153
85959.1313503
85959.1889975
85886.0049535
85903.8833891
85903.8601129
85904.6921891
85904.5693789
85886.2352248
85291.0667405
85291.0667315
85243.8864114
85385.505756
85338.2731729
85338.2731968
85338.2731593
85338.2731629
85385.5057324
85385.5065701
85338.2734559
85338.2735803
85338.2732458
85338.2733319
85385.5061811
85243.8864321
85291.0667858
85291.0667579
85480.0578498
85480.0539557
85432.7665394
85385.5053202
85338.2718253
85338.2690287
85338.2735794
85338.2731611
85385.5073518
85338.264542
85338.2587317
85385.477871
85527.3450145
85527.2401929
85574.5396499
85432.7149566
85479.9683982
85480.0216702
85479.854975
85479.9088222
85432.6855933
85933.5579563
85951.4442428
85951.3911721
85951.7240125
85951.4876098
85933.5723745
5000000
85957.4686517
85957.7693485
5000000
5000000
5000000
5000000
5000000
5000000
5000000
85681.2997476
85657.5983591
85657.5984426
85657.5983168
85657.5983274
85681.2997099
85829.5815555
85829.5813528
85793.9702114
85880.0560221
85841.4550239
85841.4552797
85841.454999
85841.4550103
85880.0559017
85880.0950031
85841.4704849
85841.5129953
85841.4556801
85841.4628366
85880.0815127
85793.9709041
85829.5865432
85829.5818599
85858.0571719
85858.8386234
5000000
5000000
5000000
5000000
85752.9368772
85753.6270954
85777.5143043
85705.6422101
85729.6335872
85729.1908382
85705.0454244
85728.7579315
85728.7359901
85728.9357337
85728.8122428
85705.0928999
85782.0985752
85752.5035161
85752.62432
85657.6089294
85657.6208469
85681.3311267
85885.8460824
85926.8920998
85829.7304067
85829.3001217
85793.9410346
85879.9365984
85840.9366963
85841.5521195
85841.5103699
85841.1565189
85880.6484868
85844.7580591
85856.220537
85841.8223676
85843.3928918
85795.6168689
85831.6873486
85829.9944193
85903.8257369
85903.8208014
85885.9959291
85927.613464
85909.7647704
85909.7743894
85909.7612842
85909.7631785
85927.6044972
85927.8427498
85909.8085489
85909.8320798
85909.7795357
85909.8004227
85927.7999185
85885.9978496
85903.8392452
85903.8283975
85957.8899219
85958.112332
85933.8588243
85952.1205501
85951.8253882
85952.8539968
85952.2823068
85933.9254418
85681.3022693
85657.6003709
85657.6030858
85657.5986533
85657.5991664
85681.3007391
85752.4433559
85752.4436122
85782.1033923
85705.0087112
85728.7229952
85728.7224657
85728.7275486
85728.7242945
85705.010339
85705.0076467
85728.722138
85728.7221277
85728.7222525
85728.7221692
85705.0076851
85782.1031173
85752.4432011
85752.4432443
85934.284452
85953.0337814
85952.9287716
85953.685264
85953.0866347
85934.3628768
85959.2142135
85959.6204646
85904.0322983
85903.9012883
85886.008884
85928.1644589
85909.9033978
85910.0994502
85909.8394936
85909.8762201
85928.0971088
85929.6585665
85910.782389
85910.7642835
85910.2153197
85910.6558801
85929.7177427
85886.1781387
85904.4494768
85904.1120005
5000000
5000000
5000000
84329.0787178
84329.0787301
84422.4525953
84329.0788974
84329.0790204
84422.4529371
84703.203917
84703.2064441
84797.0054294
5000000
5000000
5000000
85793.9702069
85805.8389418
85805.8389415
85805.8387527
85805.8418866
85793.9702242
85809.5146911
85835.4381957
85834.0063468
5000000
5000000
85770.2347085
85770.2335759
85782.0929735
85793.9530481
85805.8144549
85805.8302932
85756.7892944
85757.5815494
85783.4329284
85885.9957658
85891.9363741
85891.936345
85891.9450617
85891.9440112
85885.9992278
84422.4526294
84329.0787617
84329.0788108
84515.9301412
84609.5107827
84609.5106475
84609.5113995
84609.5110155
84515.9303824
84515.9321699
84609.5128309
84609.5119931
84609.5150323
84609.5138827
84515.9332243
84796.9913973
84703.1995547
84703.2016032
85782.102321
85770.2370861
85770.2362736
85770.2376623
85770.2376627
85782.1031139
85886.0012253
85891.9478881
85891.9462695
85892.4850205
85892.4429615
85886.3584269
85933.5430425
85939.4929555
85939.4889848
85939.6623366
85939.6106369
85933.6206745
5000000
5000000
5000000
5000000
5000000
5000000
85681.9207063
85657.9598286
85658.0908491
85657.7489158
85657.8419744
85681.7068757
85658.2192105
85658.3310326
85682.5860343
85805.839039
85805.8389831
85793.9702325
85880.0567183
85865.2075316
85865.2076978
85865.2072529
85865.2072589
85880.0556479
85880.2153792
85865.3089404
85865.3711793
85865.2080709
85865.2090867
85880.0602951
85793.9704445
85805.8393943
85805.8391582
85836.2392471
85836.0613226
85810.2213849
85859.1329939
85859.2025054
85859.1296926
85858.8092565
85809.7935925
85835.5402513
85836.1021372
5000000
5000000
5000000
85730.9548689
85730.2522229
85706.0138409
85681.3660268
85657.6436625
85657.6840403
85886.4073361
85904.184448
85904.5527124
85864.0552844
85864.3505371
85865.4279881
85865.4359622
85880.4453197
85864.4774348
85864.5462022
85707.1615341
85732.1442859
85731.6177647
85732.6500899
85732.4898787
85707.3873993
85784.0684042
85758.0744314
85758.2835078
85891.9378698
85891.9373809
85885.9962145
85927.6437858
85921.6780886
85921.6914965
85921.6483691
85921.6492934
85927.595246
85927.927609
85921.8508727
85921.8732122
85921.7079475
85921.7273129
85927.724532
85885.9970431
85891.9392242
85891.9384847
5000000
5000000
5000000
85933.7450309
85939.789436
85939.7225444
85940.3279427
85940.2486223
85934.0599906
85770.2377144
85770.2377523
85782.1032355
85782.1031306
85770.2376788
85770.2376937
85934.1953828
85940.4304462
85940.3861302
85941.2746504
85940.955007
85934.6811538
85892.0131284
85891.9887302
85886.0252676
85928.4309417
85922.2322686
85922.4057845
85921.8932483
85921.9131141
85928.022066
85928.6434235
85922.8586169
85922.4201346
85922.6238985
85922.8691234
85929.2459409
85886.091019
85892.092593
85892.0472062
85957.3544457
85963.3100801
85963.297539
85963.3809529
85963.3364462
85957.3761146
5000000
5000000
5000000
5000000
5000000
5000000
5000000
5000000
5000000
5000000
5000000
5000000
85805.8389443
85805.8389425
85793.9702074
85829.5813397
85817.7093198
85817.7093224
85817.7093182
85817.7093187
85829.5813379
85829.60425
85817.7191382
85817.7171215
85817.7145698
85817.7172649
85829.5973502
85793.9711243
85805.8421772
85805.8414046
85960.080817
85936.2438515
85953.2596058
85954.2250807
85936.0396799
5000000
5000000
5000000
5000000
5000000
5000000
5000000
5000000
85805.7709751
85805.7921725
85793.9423975
85829.4863531
85817.6385298
85817.5894086
85817.7061669
85817.6806106
85829.5594691
85891.9365588
85891.9364415
85885.9957956
85903.819468
85897.8776276
85897.8778808
85897.8774173
85897.8774813
85903.8191651
85903.8518527
85897.8936431
85897.8957451
85897.8894433
85897.8915533
85903.8477049
85885.9987563
85891.9430006
85891.9419965
85958.613258
85964.3518897
85964.3686779
85964.6995369
85964.6153826
85958.920232
85770.2377814
85770.2376459
85782.1031512
85782.1031143
85770.2376632
85770.2376646
85959.1581031
85964.7345522
85964.7260271
85964.7417514
85964.7383846
85959.1735167
85891.9544443
85891.95037
85886.0026159
85903.8722782
85897.9052493
85897.9121213
85897.8980428
85897.9009582
85903.8651636
85904.7208896
85898.567737
85898.5849298
85898.4065797
85898.5000131
85904.6684859
85886.297461
85892.3750949
85892.2965284
85939.5157585
85939.501424
85933.5485749
85951.4158836
85945.4573233
85945.478061
85945.4392833
85945.4450586
85951.3991018
85951.6289114
85945.6141144
85945.6861312
85945.5098034
85945.5548382
85951.5489321
85933.5929924
85939.569039
85939.5377349
5000000
5000000
5000000
85957.5476413
85963.5451609
85963.4489934
85963.8141278
85963.6699093
85957.6500218
5000000
5000000
5000000
5000000
5000000
5000000
5000000
5000000
5000000
5000000
5000000
5000000
5000000
85829.5814266
85817.7093816
85817.7094716
85817.7093287
85817.709344
85829.5813742
85793.9702178
85805.8389587
85805.8389485
85865.2073557
85865.2074293
85880.0565207
85841.4550525
85853.3303908
85853.3303503
85853.3306439
85853.3304685
85841.4551182
85841.4550003
85853.3303068
85853.330304
85853.330327
85853.3303137
85841.4550036
85880.0556831
85865.2072745
85865.2073051
85865.2333039
85865.2618978
85880.1737507
85841.4827472
85853.3721685
85853.3520511
85853.4361728
85853.4020564
85841.4988652
85841.4566142
85853.332197
85853.3310865
85853.3405774
85853.3348196
85841.4586657
85880.0625837
85865.2118119
85865.2185181
85805.8405053
85805.8398217
85793.9706375
85829.5839187
85817.710919
85817.7123622
85817.709674
85817.7100973
85829.5825319
5000000
5000000
5000000
5000000
5000000
5000000
5000000
5000000
5000000
5000000
85903.3686369
85886.3683015
85910.5094241
85909.222725
85829.504331
85817.7132097
85817.8881864
85817.5620454
85817.5995992
85829.3385739
85793.9717334
85805.8018316
85805.7672138
85864.3586755
85863.6580578
85840.9764454
85852.4520891
85852.400881
85853.3753648
85852.9637975
85841.2502771
85841.4659096
85853.4206003
85853.4550721
85852.9530987
85853.2758652
85841.3517042
85880.4224673
85865.335659
85865.0278878
85903.8236076
85897.8796452
85897.8806895
85897.8782752
85897.8788505
85903.8219818
85885.9960486
85891.9370099
85891.936742
85921.6600406
85921.6676854
85927.626352
85909.7670809
85915.7151757
85915.710867
85915.7287114
85915.7210671
85909.7702526
85909.761553
85915.7048395
85915.7043282
85915.7078899
85915.7059647
85909.7621513
85927.5986713
85921.651307
85921.6547412
85921.7997888
85921.8260045
85927.8864164
85909.8167159
85915.8062227
85915.7912326
85915.8337806
85915.8205524
85909.8246003
85909.7856676
85915.7493744
85915.738166
85915.776313
85915.7621808
85909.7926931
85927.7602082
85921.7493776
85921.7738028
85891.9410106
85891.9400748
85885.9974268
85903.8352319
85897.885375
85897.8873587
85897.8819991
85897.8835699
85903.8315796
85957.988319
85964.0474545
85963.953163
85964.4800241
85964.047973
85958.0509965
5000000
5000000
5000000
85939.9469393
85939.8630852
85933.7986164
85952.0146227
85945.9425874
85946.0465902
85945.7670786
85945.8525559
85951.9228619
85952.7185898
85946.4790902
85946.5868991
85946.1782856
85946.3334457
85952.5076621
85933.9947899
85940.1496003
85940.0441391
85782.1033119
85770.237787
85770.237833
85770.2376667
85770.2376715
85782.1031217
85940.5251687
85940.4721552
85934.2335901
85953.0005411
85946.7441951
85946.7914656
85946.6575647
85946.7048082
85952.9706881
85953.3621447
85947.2039982
85947.5458807
85946.8652666
85946.9910234
85953.1828608
85934.4878273
85940.7409918
85940.6071224
85959.2649559
85964.7600341
85964.7473643
85964.8652989
85964.7915751
85959.3761004
85903.9721297
85897.9683807
85898.0073219
85897.9233412
85897.9412391
85903.9295819
85886.0152791
85891.97206
85891.9612009
85922.0243021
85922.1074094
85928.2703031
85909.9460731
85916.0017674
85915.9404796
85916.2208173
85916.0935029
85910.0100294
85909.8478705
85915.8595124
85915.8462654
85915.9013171
85915.8763875
85909.8591195
85928.0535424
85921.9369702
85921.9711377
85923.327055
85923.1904124
85929.3057613
85910.8620103
85917.0465146
85917.0367141
85916.7182375
85916.9399212
85910.8682024
85910.3540773
85916.570715
85916.3829829
85916.931998
85916.7641345
85910.5061767
85929.5338606
85923.1072723
85923.2839768
85892.2191854
85892.1501452
85886.129701
85904.3260153
85898.2115768
85898.3064508
85898.0602836
85898.1285158
85904.2110697
85562.8583425
85562.8583451
85586.5335092
85526.9453578
85526.9059962
85573.9271143
82711.6913876
82711.6924245
82894.9601069
82711.6943192
82711.697479
82894.9649521
5000000
5000000
5000000
85610.2152272
85633.9034998
85633.9034919
85634.1721949
85634.1029556
85610.3202413
85849.9439915
85849.8481319
85807.0065544
5000000
5000000
85610.2237931
85633.9179804
85633.9105495
85667.6292834
85667.5365905
85620.8045927
85760.5744047
85714.1139818
85714.2315948
85586.5340598
85562.858694
85562.8590754
85432.6292386
85479.7948228
85479.8155096
85573.9183851
85526.9027764
85526.9355956
85633.9067595
85633.9049353
85610.2161422
85562.8598226
85562.8611209
85586.5383172
85291.0644578
85291.0657595
85243.8859903
85385.4639711
85338.2525273
85338.2471088
85243.8841181
85291.060078
85291.0625026
85586.5335192
85562.8583519
85562.8583697
5000000
5000000
5000000
85633.9035845
85633.9035233
85610.2152429
85610.2884497
85634.0406259
85633.9906402
85880.0571405
85874.1166021
85874.1167317
85874.1158899
85874.1158922
85880.0556128
85880.3151579
85874.3106272
85874.3560723
85874.1169181
85874.1172038
85880.0581722
85562.8719262
85562.8785115
85586.5713167
5000000
5000000
5000000
85770.5509281
85770.7753758
85782.6318
85782.180426
85770.3268245
85770.4118693
85633.9547865
85633.931623
85610.231397
85886.4515337
85892.4529791
85892.4885255
85806.0241084
85805.8861332
85794.0374259
85874.3984672
85874.4340684
85880.4387755
85794.5874662
85806.5328458
85806.2289751
85758.2355116
85757.9455689
85783.7969816
85562.8584103
85562.8585005
85586.5337487
85610.2156177
85633.9041011
85633.9037369
85586.5423731
85562.8633832
85562.8667919
5000000
5000000
5000000
5000000
5000000
5000000
5000000
5000000
5000000
85935.6760586
85942.1027559
85941.6795377
85938.8251752
85934.3818302
5000000
5000000
5000000
5000000