/*--------------------------------*- C++ -*----------------------------------*\
  =========                 |
  \\      /  F ield         | OpenFOAM: The Open Source CFD Toolbox
   \\    /   O peration     | Website:  https://openfoam.org
    \\  /    A nd           | Version:  11
     \\/     M anipulation  |
\*---------------------------------------------------------------------------*/
FoamFile
{
    format      ascii;
    class       volScalarField;
    location    "0";
    object      p_rgh;
}
// * * * * * * * * * * * * * * * * * * * * * * * * * * * * * * * * * * * * * //

dimensions      [1 -1 -2 0 0 0 0];

internalField   nonuniform List<scalar> 
2557
(
86848.0068269
86843.1820612
86836.5722153
86827.9485983
86818.1501563
86805.245712
86792.0485703
86777.2750222
86760.938566
86738.4998604
86718.6961626
86697.3752014
86674.5511757
86650.2378764
86624.4488605
86597.1975561
86568.4973064
86538.361382
86506.8029812
86473.8352263
86439.4711612
86403.7237485
86366.6058677
86328.1303148
86288.3098012
86247.1569538
86843.1835683
86836.5722887
86827.9485226
86818.1503521
86805.2456087
86792.0483955
86777.2751129
86760.9389194
86738.5002182
86718.6961885
86697.3750588
86674.5509955
86650.2377173
86624.4487377
86597.1974669
86568.4972434
86538.3613381
86506.8029506
86473.8352051
86439.4711465
86403.7237384
86366.6058609
86328.1303104
86288.3097988
86247.1569531
86842.9979181
86836.1225573
86827.9481116
86818.1516332
86805.2449683
86792.0477328
86777.275334
86760.9400427
86738.5010608
86718.6961331
86697.3746559
86674.5505592
86650.2373571
86624.4484694
86597.1972757
86568.4971098
86538.3612453
86506.8028862
86473.8351604
86439.4711155
86403.723717
86366.6058465
86328.1303012
86288.3097936
86247.1569514
86842.670716
86836.1241736
86827.9475338
86816.8436776
86805.241501
86792.0460841
86777.2755751
86760.9430135
86738.5023325
86718.6955926
86697.3737771
86674.5498017
86650.2367954
86624.448074
86597.1970023
86568.4969213
86538.3611151
86506.802796
86473.8350977
86439.471072
86403.723687
86366.6058262
86328.1302882
86288.3097864
86247.1569491
86842.6895474
86836.1256019
86826.8367289
86816.841358
86805.2380826
86792.0433483
86777.2744648
86760.952264
86738.5022704
86718.6934605
86697.3721046
86674.5486838
86650.2360615
86624.447587
86597.1966744
86568.4966977
86538.360961
86506.802689
86473.835023
86439.4710199
86403.723651
86366.6058018
86328.1302726
86288.3097776
86247.1569463
86842.6903955
86836.1248278
86826.8415575
86816.840925
86805.235846
86792.0394607
86777.2651602
86756.7375773
86738.4857902
86718.6878678
86697.369647
86674.547369
86650.2352687
86624.4470761
86597.1963326
86568.4964638
86538.3607987
86506.8025754
86473.8349433
86439.470964
86403.723612
86366.6057754
86328.1302555
86288.3097681
86247.1569432
86842.6898412
86836.1244262
86826.8419174
86816.8405041
86805.2343602
86792.0366968
86777.2604533
86756.7510053
86738.4848813
86718.6858552
86697.3681598
86674.5463765
86650.2346051
86624.4466241
86597.1960194
86568.4962442
86538.3606436
86506.8024653
86473.8348651
86439.4709086
86403.7235733
86366.6057489
86328.1302384
86288.3097585
86247.1569401
86842.6894428
86836.1241392
86826.8417508
86816.8401027
86805.2335808
86792.0357459
86777.2604291
86756.7549901
86738.4857048
86718.6854178
86697.3674851
86674.5457761
86650.2341363
86624.4462738
86597.1957622
86568.4960567
86538.3605075
86506.8023668
86473.8347941
86439.4708579
86403.7235375
86366.6057243
86328.1302225
86288.3097496
86247.1569372
86842.6891771
86836.1239124
86826.8415485
86816.8398355
86805.2332574
86792.0355857
86777.2609514
86756.7564788
86738.4863812
86718.6854445
86697.3672304
86674.5454552
86650.2338391
86624.446028
86597.1955694
86568.4959098
86538.3603975
86506.8022855
86473.8347347
86439.4708149
86403.7235069
86366.6057032
86328.1302087
86288.3097418
86247.1569347
86842.6889785
86836.1237254
86826.8413906
86816.8396841
86805.2331502
86792.035643
86777.2613429
86756.7571322
86738.4867906
86718.6855557
86697.3671534
86674.5452973
86650.2336655
86624.4458695
86597.195437
86568.4958045
86538.3603163
86506.8022243
86473.8346892
86439.4707817
86403.7234831
86366.6056867
86328.1301979
86288.3097357
86247.1569327
86842.6884678
86836.123333
86826.8412299
86816.8395935
86805.2331235
86792.0357226
86777.2615738
86756.7574365
86738.4870118
86718.6856452
86697.3671392
86674.5452256
86650.233573
86624.4457779
86597.1953564
86568.4957382
86538.360264
86506.8021842
86473.8346591
86439.4707595
86403.7234671
86366.6056755
86328.1301906
86288.3097316
86247.1569314
86842.6835026
86836.1216356
86826.840983
86816.8395328
86805.2331201
86792.0357726
86777.261685
86756.7575589
86738.4871068
86718.6856904
86697.3671401
86674.5451988
86650.2335339
86624.4457369
86597.1953191
86568.4957068
86538.3602388
86506.8021646
86473.8346443
86439.4707485
86403.7234592
86366.60567
86328.130187
86288.3097295
86247.1569307
86848.0670215
86843.5264987
86843.5285661
86843.5291257
86843.6841819
86843.6809522
86844.0326689
86844.0481758
86844.0684896
86844.0698398
86844.0704131
86844.0702796
86844.06982
86844.0696864
86844.0693616
86844.0692747
86844.0690615
86844.0690034
86844.0688564
86844.0688113
86844.0686023
86844.0684351
86844.0662903
86844.0638931
86844.0434218
86845.9760179
86845.9759941
86837.4667581
86837.4667833
86843.1831918
86846.1491169
86846.137219
86837.4668085
86837.4670014
86843.0000222
86846.1373586
86846.1369965
86837.9107625
86837.9128483
86842.6601504
86846.3985031
86846.4059275
86837.9147907
86837.9191104
86842.6879494
86846.4091142
86846.4089782
86837.9195551
86837.9195379
86842.6904959
86846.4083869
86846.4082007
86837.9194056
86837.9190392
86842.6899698
86846.4077371
86846.4076132
86837.9189383
86837.9186856
86842.6895272
86846.4073135
86846.4072334
86837.9186142
86837.9184294
86842.6892345
86846.4070371
86846.4069842
86837.9183763
86837.9182321
86842.6890282
86846.4068548
86846.40682
86837.918181
86837.9179019
86842.6887026
86846.4067222
86846.4066748
86837.9176943
86837.9161218
86842.6858756
86846.4057515
86846.4038873
86837.9151386
86837.9120963
86842.6697684
86845.8137273
86845.829621
86843.5265554
86845.9759275
86846.1227438
86843.7039692
86845.8270888
86845.8329883
86845.5694724
86845.6395324
86843.7006168
86846.2302353
86846.1416386
86843.6797084
86845.5625389
86845.5636048
86845.2988797
86845.5666066
86843.6818001
86846.1407654
86846.3789739
86844.0592426
86845.3326535
86845.3203968
86845.3400183
86845.3379862
86844.0654461
86846.4084648
86846.4090809
86844.0703544
86845.3408619
86845.3407067
86845.3406546
86845.3408008
86844.0704733
86846.4087885
86846.4085854
86844.0701233
86845.3403061
86845.3404811
86845.3399886
86845.3401406
86844.0699669
86846.40803
86846.4078757
86844.0695664
86845.3397289
86845.3398516
86845.33952
86845.3396189
86844.0694586
86846.4075022
86846.4074027
86844.0691965
86845.3393521
86845.3394315
86845.3392152
86845.3392803
86844.0691258
86846.4071612
86846.4070959
86844.0689507
86845.3391038
86845.3391566
86845.3390117
86845.3390558
86844.0689022
86846.4069364
86846.4068934
86844.0687621
86845.3389309
86845.3389707
86845.3388318
86845.3388875
86844.0686988
86846.4067879
86846.4067566
86844.0681213
86845.3385881
86845.3387456
86845.3375244
86845.3382627
86844.0675079
86846.4065876
86846.4063755
86844.0594208
86845.3313589
86845.3357274
86845.3071524
86845.3220072
86844.0521523
86846.3991695
86846.3905886
86847.0549387
86847.0549845
86840.7885508
86840.788542
86843.1820736
86830.1453677
86830.1453086
86836.5722542
86820.7510451
86820.7511344
86827.9485618
86811.2486455
86811.2486755
86818.1502604
86798.8450676
86798.8450126
86805.2456856
86840.7884745
86840.7880277
86843.0114439
86830.145243
86830.1446166
86836.1229344
86820.7512122
86820.7518035
86827.9482297
86811.2487496
86811.2488808
86818.1510648
86798.8448685
86798.8445774
86805.2454223
86840.7854138
86840.7849531
86842.9969117
86830.1443381
86830.1437152
86836.1233105
86820.7522295
86820.7539524
86827.9477559
86811.2490194
86811.2486013
86818.1575624
86798.8440297
86798.8430702
86805.2438673
86841.1889027
86841.1946388
86842.6792411
86830.1434537
86830.141385
86836.1257186
86820.7516391
86822.0416944
86827.9489738
86811.2434979
86811.2410808
86816.8422345
86798.8416218
86798.8401068
86805.2395773
86841.2028186
86841.2034852
86842.6902555
86830.1370915
86830.1359359
86836.124975
86822.0411902
86822.0420535
86826.8404537
86811.2396834
86811.2388082
86816.8410912
86798.8386083
86798.8371173
86805.2368693
86841.2036429
86841.2035123
86842.6902564
86830.1361547
86830.1363163
86836.1245102
86822.0425199
86822.0426493
86826.8418772
86811.2381626
86811.237636
86816.8407263
86798.8356954
86798.8345078
86805.2350063
86841.203119
86841.2030089
86842.6897252
86830.1363086
86830.1361936
86836.124205
86822.0426056
86822.0424918
86826.8418518
86811.2372047
86811.2368655
86816.8402893
86798.8336393
86798.8330657
86805.2338953
86841.2027393
86841.2026657
86842.6893665
86830.1361365
86830.1359861
86836.1239638
86822.0423612
86822.042239
86826.8416453
86811.2366116
86811.2364298
86816.8399518
86798.8327191
86798.832527
86805.2333795
86841.2024813
86841.2024294
86842.6891247
86830.135933
86830.13581
86836.1237731
86822.0421343
86822.0420486
86826.8414645
86811.2363046
86811.2362209
86816.8397487
86798.8324322
86798.8323941
86805.2331875
86841.2022792
86841.2022139
86842.6889194
86830.1357683
86830.1356443
86836.1234916
86822.0419784
86822.041917
86826.8413177
86811.236166
86811.2361296
86816.8396344
86798.8323867
86798.8323938
86805.2331317
86841.2017048
86841.2012493
86842.6880411
86830.1355834
86830.1353096
86836.1222525
86822.0418566
86822.0417937
86826.8411131
86811.2361046
86811.2360869
86816.8395584
86798.832406
86798.8324181
86805.2331202
86841.1972191
86841.1944712
86842.6797709
86830.1351852
86830.1349746
86836.1199857
86822.0417382
86822.0417163
86826.8409107
86811.2360765
86811.2360764
86816.8395268
86798.8324277
86798.8324342
86805.2331232
86843.5265239
86845.829659
86845.829683
86847.0549915
86847.0595769
86837.4667578
86839.9966054
86839.9966145
86839.9965572
86839.9965988
86837.4667589
86843.1820911
86840.7885367
86840.788508
86837.4670235
86839.996235
86839.9965248
86839.9950286
86839.9960114
86837.4671456
86843.0095074
86840.787626
86840.7859054
86837.910779
86839.5958559
86839.9947299
86839.5996568
86839.597096
86837.9114128
86842.998252
86841.1780619
86841.1826525
86837.9166988
86839.6067951
86839.6032827
86839.6112736
86839.6095072
86837.9181821
86842.6847979
86841.1988059
86841.2014004
86837.9196844
86839.6126997
86839.6122541
86839.6127969
86839.6128301
86837.9196475
86842.6904921
86841.2037214
86841.203734
86837.9192736
86839.61256
86839.6126907
86839.6123038
86839.6124278
86837.9191508
86842.6901099
86841.2033737
86841.2032409
86837.9188467
86839.6120885
86839.6121907
86839.6119121
86839.6119961
86837.9187628
86842.689621
86841.2029097
86841.2028203
86837.9185479
86839.6117654
86839.6118355
86839.6116417
86839.611701
86837.9184864
86842.6892974
86841.2025987
86841.2025375
86837.9183267
86839.6115361
86839.611587
86839.6114391
86839.6114876
86837.9182793
86842.6890757
86841.2023804
86841.2023318
86837.9181188
86839.6113199
86839.6113861
86839.6110756
86839.6112253
86837.9180327
86842.6888365
86841.2021196
86841.2019669
86837.9173647
86839.6104157
86839.6108276
86839.6087271
86839.6097499
86837.9168579
86842.6872639
86841.2004708
86841.1991915
86837.9139762
86839.6054185
86839.6072705
86839.6019711
86839.6034515
86837.9128436
86842.6747438
86841.1912354
86841.1884688
86847.5737981
86847.5750243
86848.0134611
86842.2952301
86842.2952293
86843.1820606
86834.2339643
86834.233963
86836.5722167
86825.6504793
86825.6504805
86827.9485942
86784.8579887
86784.8579714
86792.0485212
86842.2956317
86842.295615
86843.0113564
86834.2339657
86834.2339604
86836.5726522
86825.6504882
86825.6504911
86827.9484563
86784.8579241
86784.857826
86792.0481542
86834.2318981
86834.2316107
86836.1224193
86784.8576426
86784.8573246
86792.0470562
86834.2319085
86834.2320224
86836.1249881
86784.856801
86784.8559429
86792.0448635
86834.2306857
86834.2300768
86836.1253762
86784.8544818
86784.8520789
86792.0414905
86834.2293819
86834.2292966
86836.1247061
86784.8488268
86784.8464066
86792.037796
86834.2291033
86834.2290414
86836.124348
86784.8451301
86784.8445582
86792.0360626
86834.2288578
86834.2287998
86836.1240771
86784.8443929
86784.8444036
86792.035615
86834.2286414
86834.2285947
86836.1238643
86784.8444925
86784.8445972
86792.0356045
86834.2284632
86834.2284147
86836.1236697
86784.8446988
86784.8447837
86792.0356849
86834.228161
86834.2279973
86836.1230927
86784.8448515
86784.8449004
86792.0357522
86834.2271005
86834.2267174
86836.12095
86784.8449325
86784.8449482
86792.0357834
86848.9205151
86843.5264987
86844.5210507
86844.5210488
86844.5326538
86844.5243135
86843.5271809
86843.5307321
86844.5414002
86844.5357747
86845.9760203
86846.9882853
86846.988264
86846.9917623
86846.988289
86845.9760216
86843.1824267
86842.2953496
86842.2954747
86846.1770631
86846.1754585
86848.974163
86845.8336541
86844.8443518
86844.8584791
86844.8398457
86844.8420321
86845.8318328
86843.5269065
86844.5228226
86844.5212388
86847.0599422
86845.9782453
86846.9922468
86845.980373
86844.3768633
86844.5418522
86843.7049434
86845.8563253
86844.8727496
86844.8661402
86844.8637794
86844.8725948
86845.8574813
86846.1766748
86846.6557457
86846.6964922
86847.0549466
86847.5111161
86847.5103399
86847.5143024
86847.5114057
86847.0549498
86848.0156175
86847.5754684
86847.5799105
86840.7885494
86841.5547646
86841.5547657
86841.5547602
86841.5547623
86840.7885464
86843.1820607
86842.295228
86842.2952289
86830.1453609
86832.2405612
86832.2405667
86832.2405192
86832.2405472
86830.1453434
86836.5722191
86834.2339611
86834.2339613
86820.7510572
86823.2512316
86823.2512243
86823.2512775
86823.2512487
86820.7510856
86827.9485834
86825.650483
86825.6504857
86830.1451232
86832.240339
86832.2404624
86832.2394774
86832.2400596
86830.1449175
86836.5730214
86834.233811
86834.2325085
86827.9483561
86825.6504987
86825.6505213
86830.14411
86832.2387312
86832.2390303
86832.2384224
86832.2385462
86830.1439157
86836.122669
86834.2315659
86834.2317038
86830.1430634
86832.2380037
86832.2382779
86832.2364664
86832.2374642
86830.1424511
86836.1255332
86834.2318972
86834.2314393
86830.1356957
86832.2336692
86832.2347052
86832.2331759
86832.2333125
86830.1358629
86836.1251578
86834.2297148
86834.2295043
86830.1362318
86832.2331426
86832.2331557
86832.2331062
86832.233132
86830.1363058
86836.1246023
86834.2292285
86834.2291652
86830.1362813
86832.2330263
86832.2330705
86832.2329223
86832.2329753
86830.1362369
86836.1242745
86834.2289793
86834.2289181
86830.1360892
86832.2328123
86832.2328663
86832.2327075
86832.2327579
86830.1360312
86836.1240186
86834.228744
86834.2286913
86830.1358925
86832.2326131
86832.232658
86832.2325288
86832.2325693
86830.135846
86836.1238183
86834.2285502
86834.2285073
86830.135733
86832.2324455
86832.2324876
86832.2323365
86832.2323965
86830.135689
86836.1235967
86834.228355
86834.228275
86830.1355125
86832.2321486
86832.2322563
86832.2318242
86832.2320046
86830.135417
86836.1227401
86834.2277679
86834.2274653
86830.1350745
86832.23141
86832.231616
86832.2312029
86832.2312521
86830.1349921
86836.1203326
86834.2263988
86834.2262563
86844.5211308
86844.521054
86843.5264995
86845.8296858
86844.839638
86844.8397209
86844.8396322
86844.8396345
86845.8296849
86847.5803744
86847.5888612
86847.0554394
86847.5217102
86847.5146286
86847.5157157
86847.5247128
86847.0556795
86842.2952391
86842.2952732
86843.1822812
86840.7885308
86841.5547682
86841.5547608
86847.8236863
86847.8243964
86848.0078695
86769.3013301
86769.3014038
86777.2750505
86752.1884137
86752.188518
86760.93867
86769.3015764
86769.3018672
86777.275208
86752.1887946
86752.1892078
86760.9393421
86825.6505719
86825.6506447
86827.9480096
86769.302322
86769.3029996
86777.2754762
86769.3039747
86769.30522
86777.275425
86769.3062382
86769.3044234
86777.2714905
86769.288428
86769.2834283
86777.2615258
86769.2842655
86769.2847287
86777.2602166
86769.2857489
86769.2862526
86777.2606787
86769.2868038
86769.2870923
86777.2611625
86769.2873765
86769.2875297
86777.2614726
86769.2876726
86769.2877466
86777.2616407
86769.2878062
86769.2878279
86777.2617054
86848.0734542
86848.4775232
86848.4766607
86844.3407864
86844.348162
86843.6889876
86843.6792402
86844.3339465
86844.3362109
86845.9760183
86846.4052913
86846.4052908
86846.4056051
86846.4054111
86845.9760348
86847.5925261
86847.5661139
86837.4667579
86838.33569
86838.3356906
86838.335687
86838.3356844
86837.4667693
86837.4668516
86838.3357056
86838.3356936
86843.0029636
86842.2904299
86842.2886981
86846.1358366
86846.6428773
86846.6433462
86849.3910458
86849.3902406
86845.7920116
86845.4849284
86845.4992908
86845.4574465
86845.4576057
86845.8295247
86845.975609
86846.4029699
86846.4054802
86846.4260879
86846.4448633
86846.0915717
86845.5815723
86844.979622
86844.9693619
86845.0151422
86844.9954635
86845.6038551
86843.6949187
86844.3581342
86844.3685688
86846.6446373
86846.6478778
86846.1523402
86844.9636382
86844.9610309
86845.561201
86847.0549398
86847.2525396
86847.252529
86847.2529351
86847.2527983
86847.054968
86847.8333814
86847.8415484
86840.7884029
86841.5547562
86841.5548144
86841.5542804
86841.554634
86840.7882736
86843.0117927
86842.2956651
86842.2952381
86845.8296912
86845.4573922
86845.4574062
86845.457377
86845.4573772
86845.8296833
86847.8421878
86847.8427787
86847.0550436
86847.2532374
86847.2529814
86847.2621251
86847.2607742
86847.0576256
86838.3356872
86838.3356888
86837.4667577
86839.9966101
86839.1789819
86839.1789784
86839.1789852
86839.1789842
86839.9966132
86839.996577
86839.1789594
86839.1789488
86839.1789736
86839.1789675
86839.9965898
86837.4667621
86838.3356843
86838.3356856
86841.5548068
86841.5547851
86840.788523
86839.9963821
86839.1788743
86839.1788119
86839.1789337
86839.178911
86839.9964707
86839.1787096
86839.1785582
86839.9957153
86842.2940876
86842.2923532
86843.0063746
86840.7870885
86841.5526303
86841.553595
86841.5505542
86841.5515554
86840.7864865
86847.5739843
86847.7623643
86847.7618107
86847.7652826
86847.7628167
86847.5741378
86848.0087124
86847.824976
86847.8280908
86848.4771871
86848.0755802
86848.921489
86848.5338723
86848.5335687
86848.5342996
86848.9216118
86844.5210494
86844.1959966
86844.1959975
86844.1959962
86844.1959963
86844.5210489
86846.4052952
86846.4052916
86845.9760185
86846.9882691
86846.5451372
86846.5451414
86846.5451363
86846.5451368
86846.9882676
86846.9887118
86846.5453238
86846.5458259
86846.5451467
86846.545233
86846.9885594
86845.9760307
86846.4053574
86846.4052994
86846.7380668
86846.7470025
86848.9751205
86849.3399477
86849.3396701
86848.9749011
86845.4636716
86845.4723906
86845.7731457
86844.8480245
86845.1635549
86845.1578272
86844.8401331
86845.1522116
86845.151926
86845.1545204
86845.1529174
86844.8407613
86845.82965
86845.4581554
86845.4596959
86844.1961395
86844.196303
86844.5214712
86847.0532732
86847.5028248
86846.4070817
86846.4019785
86845.9756847
86846.9869381
86846.5390814
86846.5462937
86846.5457965
86846.5416547
86846.9949627
86846.5837348
86846.7169809
86846.5494548
86846.567802
86845.9962058
86846.4302252
86846.4102082
86847.2526031
86847.2525486
86847.0549408
86847.5105522
86847.3176215
86847.3177268
86847.3175832
86847.317604
86847.5104561
86847.5130095
86847.3181003
86847.3183572
86847.3177832
86847.3180115
86847.5125508
86847.0549629
86847.2527519
86847.2526325
86847.8293397
86847.8316439
86847.5771877
86847.7694194
86847.7663401
86847.7770611
86847.771106
86847.5778965
86844.5210828
86844.1960229
86844.1960597
86844.1960001
86844.1960068
86844.5210624
86845.4573807
86845.4573848
86845.8296903
86844.8396469
86845.1517555
86845.1517482
86845.1518157
86845.1517729
86844.8396686
86844.8396324
86845.1517431
86845.1517429
86845.151745
86845.1517437
86844.839633
86845.8296835
86845.4573777
86845.4573787
86847.5817123
86847.7789283
86847.7778388
86847.7857014
86847.7794769
86847.5825455
86847.8430372
86847.8472274
86847.2548737
86847.2534341
86847.0550879
86847.516452
86847.3191359
86847.3212758
86847.3184381
86847.3188392
86847.5157314
86847.5324266
86847.3287285
86847.328534
86847.3225404
86847.3273478
86847.5330577
86847.0569858
86847.259457
86847.2557494
86847.9462028
86847.9463501
86848.0069857
86815.4487785
86815.4487909
86818.1501703
86815.4489563
86815.4490756
86818.1504931
86825.650586
86825.6503215
86827.9472194
86848.0680686
86848.2458522
86848.2450473
86845.976018
86846.1207312
86846.1207312
86846.1207383
86846.1207748
86845.9760257
86846.1656408
86846.4748604
86846.4579733
86849.594895
86849.5954952
86845.6816987
86845.6816862
86845.8295696
86845.9758208
86846.1204478
86846.1206376
86845.5125189
86845.5225587
86845.8466093
86847.0549388
86847.1212079
86847.1212075
86847.1213056
86847.1212938
86847.0549786
86818.1502037
86815.4488224
86815.4488711
86820.7513327
86823.2513926
86823.2513227
86823.2516634
86823.2515002
86820.7515191
86820.7528327
86823.2522015
86823.2518986
86823.2527095
86823.2525156
86820.7535649
86827.9479034
86825.6507045
86825.6506946
86845.8296801
86845.6817257
86845.6817167
86845.6817268
86845.6817268
86845.829683
86847.0550015
86847.1213373
86847.1213191
86847.1273186
86847.1268501
86847.0590061
86847.5738255
86847.6369048
86847.6368628
86847.6386961
86847.6381493
86847.5746521
86848.0114981
86847.9505814
86847.9523243
86848.7571575
86848.75772
86848.92096
86844.5294274
86844.2009746
86844.2027819
86844.198066
86844.1993489
86844.5265405
86844.2045494
86844.2060813
86844.5383967
86846.1207341
86846.120733
86845.9760194
86846.9882773
86846.8199607
86846.819963
86846.8199564
86846.8199565
86846.9882645
86846.9900703
86846.8211279
86846.8218419
86846.8199677
86846.81998
86846.988319
86845.9760236
86846.1207396
86846.1207361
86846.4842587
86846.4821854
86846.1741688
86846.7503516
86846.7511254
86846.7502688
86846.7465719
86846.1689436
86846.475966
86846.4826191
86848.9745889
86849.1332596
86849.1327721
86845.180683
86845.1715728
86844.8529413
86844.5219417
86844.1966166
86844.1971723
86847.0595574
86847.256556
86847.2605948
86846.8067653
86846.8101277
86846.8224944
86846.8225892
86846.9926657
86846.8115679
86846.8123446
86844.8681164
86845.1960905
86845.1892743
86845.2026004
86845.2005521
86844.8710858
86845.8544671
86845.5287927
86845.5314208
86847.1212248
86847.1212193
86847.0549441
86847.5108773
86847.4468073
86847.446952
86847.4464864
86847.4464963
86847.5103569
86847.5139179
86847.4486706
86847.4489113
86847.4471296
86847.4473385
86847.511743
86847.0549536
86847.1212401
86847.1212318
86847.9540277
86847.9550189
86848.0224126
86847.5759764
86847.6400405
86847.6393329
86847.6457301
86847.6448927
86847.5793272
86845.6817292
86845.6817301
86845.829687
86845.8296843
86845.681728
86845.6817285
86847.580766
86847.6468117
86847.6463442
86847.6557163
86847.6523451
86847.5859269
86847.1220645
86847.1217928
86847.0552719
86847.5193028
86847.4527788
86847.4546474
86847.4491271
86847.4493411
86847.5149286
86847.5215788
86847.4595249
86847.4548041
86847.4569958
86847.4596355
86847.5280171
86847.0560093
86847.1229494
86847.122444
86847.8237927
86847.8852824
86847.8851533
86847.8860118
86847.8855538
86847.8240173
86848.0073162
86847.9466588
86847.9471789
86848.2484337
86848.2464017
86848.0688962
86848.4773911
86848.3047001
86848.3060519
86848.3035546
86848.3042546
86848.4771474
86846.1207316
86846.1207314
86845.9760181
86846.405291
86846.2638225
86846.2638227
86846.2638223
86846.2638224
86846.4052909
86846.4055709
86846.2639483
86846.2639255
86846.2638911
86846.2639245
86846.4054878
86845.9760354
86846.1207771
86846.1207666
86847.8519788
86847.6025123
86847.7812612
86847.7913155
86847.6003485
86849.3907907
86849.5446294
86849.5445971
86849.5391324
86849.5440209
86849.3906517
86849.5951107
86849.5880048
86846.1199271
86846.1201805
86845.9756932
86846.40418
86846.2629896
86846.2624039
86846.2637959
86846.2634915
86846.4050446
86847.12121
86847.1212086
86847.0549392
86847.2525339
86847.1870731
86847.187076
86847.1870708
86847.1870715
86847.2525305
86847.2528906
86847.1872511
86847.1872744
86847.1872045
86847.1872279
86847.252845
86847.0549732
86847.1212824
86847.1212712
86847.8368316
86847.8959978
86847.896179
86847.8995603
86847.8986995
86847.840007
86845.6817325
86845.6817316
86845.8296892
86845.8296831
86845.6817269
86845.6817271
86847.8424628
86847.8999158
86847.8998301
86847.8999862
86847.8999535
86847.8426205
86847.1214106
86847.1213651
86847.0550172
86847.2531152
86847.1873798
86847.1874559
86847.1872999
86847.1873322
86847.253037
86847.2624394
86847.1947075
86847.1948982
86847.192925
86847.1939583
86847.2618632
86847.0583229
86847.1260945
86847.1252199
86847.637146
86847.6369944
86847.5738844
86847.7620685
86847.699724
86847.6999418
86847.6995345
86847.6995951
86847.7618934
86847.7642906
86847.7013707
86847.7021271
86847.7002751
86847.7007481
86847.7634564
86847.5743574
86847.6377094
86847.6373784
86847.947974
86847.9491022
86848.0099086
86847.8257943
86847.8877014
86847.8867119
86847.8904681
86847.8889847
86847.8268548
86848.3062457
86848.2489489
86848.7609391
86848.7025975
86848.5340444
86848.7024422
86848.701879
86848.7033167
86848.7027824
86848.534278
86848.9212036
86848.7580652
86848.7588351
86846.4052932
86846.2638244
86846.263826
86846.263823
86846.2638235
86846.4052922
86845.9760189
86846.1207323
86846.1207318
86846.8199581
86846.8199592
86846.988275
86846.5451379
86846.6833602
86846.6833594
86846.6833639
86846.6833615
86846.545139
86846.5451364
86846.6833584
86846.6833583
86846.6833589
86846.6833586
86846.5451366
86846.9882649
86846.8199568
86846.8199573
86846.8202597
86846.8205881
86846.9896006
86846.5454687
86846.6838502
86846.6836159
86846.6845944
86846.6841978
86846.5456589
86846.5451583
86846.6833831
86846.6833696
86846.6834819
86846.6834143
86846.5451832
86846.988345
86846.8200119
86846.8200895
86846.1207547
86846.1207456
86845.9760267
86846.4053254
86846.2638454
86846.2638636
86846.263829
86846.2638347
86846.4053081
86849.1385923
86849.1336008
86848.9748178
86849.3397158
86849.1856971
86849.1900294
86849.1848975
86849.1853588
86849.3396712
86849.1262682
86847.2475853
86847.0591214
86847.325755
86847.3117068
86846.4044023
86846.2638978
86846.2659976
86846.2620794
86846.2625329
86846.4024364
86845.9760668
86846.1203099
86846.1198856
86846.8102785
86846.802239
86846.5395491
86846.6732048
86846.6726057
86846.6838997
86846.6791365
86846.542759
86846.545277
86846.6844176
86846.684815
86846.6790046
86846.6827428
86846.5439401
86846.9924096
86846.8214471
86846.8179332
86847.2525796
86847.1870957
86847.1871073
86847.1870804
86847.1870868
86847.2525617
86847.0549422
86847.1212151
86847.1212121
86847.4466124
86847.4466949
86847.5106904
86847.3176468
86847.382353
86847.3823061
86847.3825001
86847.382417
86847.3176815
86847.3175862
86847.3822406
86847.382235
86847.3822738
86847.3822528
86847.3175928
86847.5103936
86847.4465181
86847.4465552
86847.4481201
86847.4484027
86847.513477
86847.3181895
86847.3833417
86847.3831791
86847.3836405
86847.3834971
86847.3182756
86847.3178502
86847.3827247
86847.3826029
86847.3830172
86847.3828637
86847.317927
86847.5121253
86847.4475766
86847.44784
86847.1212601
86847.1212496
86847.054958
86847.2527077
86847.1871594
86847.1871814
86847.1871219
86847.1871393
86847.2526675
86847.8303593
86847.8928683
86847.891898
86847.8973291
86847.8928766
86847.8310093
86848.0142651
86847.9570695
86847.9506192
86847.6417059
86847.6408194
86847.5765469
86847.7683146
86847.7048213
86847.7059134
86847.7029775
86847.7038755
86847.7673571
86847.7756514
86847.7104511
86847.7115814
86847.7072958
86847.7089237
86847.7734545
86847.578634
86847.6438471
86847.6427331
86845.8296886
86845.6817312
86845.6817323
86845.6817273
86845.6817276
86845.8296838
86847.6478106
86847.6472516
86847.5811719
86847.7785837
86847.7132287
86847.7137233
86847.7123219
86847.7128166
86847.7782742
86847.7823409
86847.7180436
86847.7216241
86847.7144958
86847.7158128
86847.7804768
86847.5838731
86847.6500874
86847.6486751
86847.8435593
86847.9001691
86847.9000417
86847.9012409
86847.9004893
86847.8447052
86847.2542126
86847.1880785
86847.1885092
86847.1875801
86847.1877782
86847.2537451
86847.0551598
86847.121607
86847.121486
86847.4505388
86847.451434
86847.5175844
86847.3196017
86847.3854622
86847.3847976
86847.3878373
86847.3864569
86847.3202999
86847.3185296
86847.3839195
86847.3837759
86847.3843729
86847.3841026
86847.3186524
86847.5152653
86847.449598
86847.4499661
86847.4645638
86847.4630947
86847.5286587
86847.3295978
86847.3967875
86847.3966803
86847.3932328
86847.3956339
86847.3296664
86847.3240546
86847.39163
86847.3895952
86847.3955451
86847.3937261
86847.3257143
86847.5310938
86847.4621983
86847.4640996
86847.1243589
86847.1235902
86847.056443
86847.2581006
86847.1907684
86847.1918176
86847.189095
86847.1898497
86847.2568378
86842.8311694
86842.8311693
86843.1820611
86842.2873917
86842.2865986
86842.9967286
86752.1899715
86752.191059
86760.9411505
86752.1930461
86752.1963601
86760.9462205
86848.0671833
86848.1269441
86848.1267869
86843.5264987
86843.8644783
86843.8644783
86843.8682756
86843.867292
86843.5280306
86846.6438975
86846.6429108
86846.1357232
86849.6891074
86849.6894238
86843.5266163
86843.8646774
86843.8645736
86844.3347207
86844.3335205
86843.6788626
86845.560926
86844.9606246
86844.962119
86843.1820653
86842.8311695
86842.8311739
86840.785035
86841.5492305
86841.5497579
86842.9964093
86842.2863239
86842.2865318
86843.8645211
86843.8644962
86843.5265087
86842.8311833
86842.8312017
86843.1821248
86838.3357396
86838.3357228
86837.466921
86839.9953745
86839.1783641
86839.1781307
86837.4671692
86838.3356893
86838.3357392
86843.1820608
86842.8311688
86842.8311685
86848.8664694
86848.8665573
86848.920597
86843.8644789
86843.8644784
86843.5264986
86843.5275587
86843.8664082
86843.8657011
86846.9882824
86846.9211925
86846.9211941
86846.9211832
86846.9211832
86846.988264
86846.9911956
86846.9233987
86846.923914
86846.9211965
86846.9211999
86846.9882945
86842.8313662
86842.8314734
86843.1826267
86848.9742415
86849.0274964
86849.0274184