/*--------------------------------*- C++ -*----------------------------------*\
  =========                 |
  \\      /  F ield         | OpenFOAM: The Open Source CFD Toolbox
   \\    /   O peration     | Website:  https://openfoam.org
    \\  /    A nd           | Version:  11
     \\/     M anipulation  |
\*---------------------------------------------------------------------------*/
FoamFile
{
    format      ascii;
    class       volScalarField;
    location    "0";
    object      rho;
}
// * * * * * * * * * * * * * * * * * * * * * * * * * * * * * * * * * * * * * //

dimensions      [1 -3 0 0 0 0 0];

internalField   nonuniform List<scalar> 
2557
(
0.99757663322
0.993066885308
0.988543992714
0.983905672036
0.979559970866
0.974694436969
0.970389415351
0.966103412752
0.961836337501
0.956530727821
0.952305903959
0.948099739492
0.943912156482
0.939743073855
0.935592409344
0.93146008065
0.927346005909
0.923250103814
0.919172293606
0.915112495033
0.911070628301
0.90704661404
0.903040373285
0.899051827448
0.895080898314
0.891127508023
0.99306794762
0.988543993017
0.983905673095
0.979559973235
0.974694435878
0.970389413421
0.966103413766
0.961836341419
0.956530731768
0.952305904244
0.948099737933
0.94391215452
0.939743072129
0.935592408017
0.93146007969
0.927346005234
0.923250103345
0.919172293282
0.915112494809
0.911070628146
0.907046613934
0.903040373214
0.899051827403
0.895080898288
0.891127508015
0.992921413768
0.988270776105
0.983905705308
0.979559989541
0.974694429276
0.970389406161
0.966103416252
0.961836353876
0.95653074106
0.952305903635
0.948099733527
0.943912149769
0.939743068223
0.935592405119
0.931460077635
0.927346003803
0.923250102355
0.919172292598
0.915112494336
0.911070627819
0.90704661371
0.903040373063
0.899051827307
0.895080898235
0.891127507997
0.99266479632
0.988273155996
0.983905876403
0.979018484577
0.974694394118
0.970389388345
0.966103419017
0.961836386819
0.956530755086
0.952305897701
0.948099723917
0.943912141519
0.939743062131
0.935592400849
0.931460074693
0.927346001784
0.923250100966
0.919172291639
0.915112493672
0.91107062736
0.907046613395
0.903040372851
0.899051827172
0.89508089816
0.891127507973
0.992679838182
0.988275783416
0.983362156204
0.979018519499
0.974694365037
0.970389358991
0.9661034068
0.961836489386
0.956530754403
0.952305874287
0.948099705627
0.943912129345
0.939743054171
0.935592395589
0.931460071167
0.927345999389
0.923250099322
0.919172290502
0.915112492882
0.911070626811
0.907046613017
0.903040372596
0.899051827009
0.895080898069
0.891127507944
0.992681289034
0.988276366816
0.983362332063
0.979018556342
0.974694347209
0.970389316565
0.966103303338
0.960773908113
0.95653057267
0.952305812872
0.948099678752
0.943912115027
0.939743045574
0.935592390071
0.93146006749
0.927345996883
0.92325009759
0.919172289295
0.915112492038
0.911070626221
0.907046612608
0.90304037232
0.899051826831
0.895080897971
0.891127507912
0.992681365019
0.988276418147
0.98336235044
0.97901856064
0.974694332892
0.970389286086
0.966103250994
0.960774056829
0.956530562652
0.952305790772
0.948099662489
0.943912104218
0.939743038377
0.935592385189
0.931460064122
0.927345994531
0.923250095935
0.919172288125
0.91511249121
0.911070625638
0.907046612201
0.903040372043
0.899051826653
0.895080897871
0.89112750788
0.992681363613
0.988276417703
0.983362349804
0.979018557389
0.974694324595
0.970389275555
0.966103250742
0.960774100961
0.956530571734
0.95230578597
0.94809965511
0.94391209768
0.939743033292
0.935592381406
0.931460061355
0.927345992522
0.923250094483
0.919172287079
0.91511249046
0.911070625103
0.907046611826
0.903040371786
0.899051826487
0.895080897778
0.891127507851
0.992681360132
0.988276414692
0.983362347206
0.979018554213
0.974694320934
0.970389273761
0.966103256557
0.960774117447
0.956530579194
0.952305786263
0.948099652325
0.943912094185
0.939743030069
0.935592378751
0.931460059281
0.927345990948
0.923250093309
0.919172286215
0.91511248983
0.91107062465
0.907046611505
0.903040371565
0.899051826344
0.895080897698
0.891127507825
0.992681342184
0.988276400063
0.983362340756
0.979018550541
0.974694319278
0.970389274328
0.966103260906
0.960774124682
0.956530583709
0.952305787484
0.948099651483
0.943912092465
0.939743028186
0.935592377039
0.931460057856
0.927345989821
0.923250092444
0.919172285565
0.91511248935
0.9110706243
0.907046611255
0.903040371392
0.899051826232
0.895080897634
0.891127507804
0.992681035102
0.988276231577
0.983362306216
0.979018541773
0.974694317678
0.970389275053
0.966103263461
0.960774128052
0.956530586149
0.952305788467
0.948099651328
0.943912091685
0.939743027183
0.93559237605
0.931460056989
0.92734598911
0.923250091885
0.919172285138
0.91511248903
0.911070624066
0.907046611087
0.903040371276
0.899051826155
0.895080897592
0.89112750779
0.992677279824
0.988275259199
0.983362209221
0.979018528445
0.974694316399
0.970389275573
0.966103264715
0.960774129415
0.956530587199
0.952305788965
0.948099651339
0.943912091393
0.939743026759
0.935592375607
0.931460056588
0.927345988774
0.923250091617
0.91917228493
0.915112488874
0.911070623951
0.907046611004
0.903040371218
0.899051826118
0.89508089757
0.891127507783
0.997645669525
0.993341665958
0.993343297418
0.993343725134
0.993468528915
0.993466008889
0.993752050958
0.993764718318
0.993781841151
0.993783164509
0.993784253572
0.993784320693
0.993784368516
0.993784369813
0.993784368049
0.993784367108
0.993784364614
0.993784363724
0.993784357771
0.993784351289
0.993784250085
0.993784128725
0.993782386515
0.99378041206
0.993763512537
0.995473788223
0.995473757085
0.989091126475
0.989091126823
0.993067718622
0.995638297264
0.995626883657
0.989091126328
0.989091107004
0.992922945554
0.995626470614
0.9956263775
0.989364876272
0.989367331446
0.992656942675
0.995879229743
0.995886805436
0.989368921425
0.989372763862
0.992678391966
0.995890600282
0.995890691426
0.989373421234
0.989374222113
0.992681193629
0.99589074601
0.995890747127
0.989374297298
0.989374363324
0.992681362113
0.995890743989
0.995890742755
0.98937436678
0.989374367284
0.992681364471
0.99589073931
0.995890738471
0.989374366618
0.989374364363
0.992681361124
0.995890736116
0.995890735543
0.98937436338
0.98937435457
0.992681351784
0.995890733086
0.995890731521
0.989374345012
0.989374224758
0.992681198116
0.99589070775
0.995890675957
0.989374108898
0.989373153568
0.992679087582
0.995889749986
0.995887851858
0.989372542073
0.989370633141
0.992666761201
0.995320744932
0.995336025982
0.993341715749
0.995473692321
0.995613037614
0.993484214676
0.995333366384
0.995338764237
0.995093923451
0.995158192284
0.993481611113
0.995715530857
0.995630527574
0.993465329509
0.995087833865
0.995088609646
0.994844919158
0.995091587627
0.99346710244
0.995630135068
0.995859648479
0.993773889262
0.994875254616
0.994864167939
0.994882225564
0.994880203704
0.993779143431
0.995889524829
0.995890346527
0.993783803393
0.994883411831
0.994883056405
0.994883637599
0.994883568309
0.993784109094
0.99589072719
0.995890741109
0.993784351037
0.994883680815
0.99488366797
0.994883686415
0.994883685483
0.99378436386
0.99589074657
0.995890745326
0.993784369839
0.99488368539
0.994883686068
0.994883683118
0.994883684367
0.993784369137
0.995890741534
0.995890740332
0.993784366416
0.994883681418
0.994883682118
0.994883679626
0.994883680608
0.993784365611
0.995890737648
0.995890736814
0.993784362814
0.994883678237
0.994883678849
0.994883675346
0.994883677209
0.99378436113
0.995890734899
0.995890734087
0.993784337914
0.994883666146
0.994883672235
0.994883624567
0.994883652914
0.99378430945
0.995890728388
0.995890721816
0.993783882629
0.994883435606
0.994883564581
0.994882486577
0.994883149828
0.993783385559
0.995890598383
0.99589038728
0.993776724388
0.994876945422
0.994880867633
0.994855311821
0.994868578157
0.993770726846
0.995883085845
0.995874497828
0.996541567238
0.996541613454
0.991282691764
0.991282693936
0.993066899227
0.984995106276
0.984995106581
0.988543993038
0.980644593744
0.980644594896
0.983905672376
0.976854105981
0.976854106336
0.979559972111
0.972539543351
0.972539542747
0.974694436689
0.991282756482
0.9912826414
0.992931486826
0.984995107478
0.984995132276
0.988270657842
0.980644595964
0.980644604902
0.983905688418
0.976854107237
0.976854108924
0.979559982288
0.972539541164
0.972539537993
0.974694433941
0.991281238813
0.991281433104
0.992921081969
0.984995163465
0.984995399465
0.988272275338
0.980644611611
0.980644643365
0.983905820746
0.976854111088
0.97685410839
0.979560062447
0.972539532086
0.97253952187
0.974694418081
0.991565101331
0.991569414536
0.99267136866
0.984995516424
0.984995841931
0.988275373415
0.980644625585
0.981187776381
0.983906082679
0.976854057298
0.976854041139
0.979018494735
0.972539506685
0.972539491299
0.974694376775
0.991576000094
0.991576723287
0.992680604018
0.984995911237
0.984996049007
0.98827631335
0.981187846269
0.981187919702
0.983362287132
0.976854038797
0.97685404012
0.979018543799
0.972539476361
0.972539461306
0.974694355796
0.991577427569
0.991577478197
0.992681333861
0.984996068772
0.984996087561
0.98827641551
0.981187951345
0.981187962922
0.983362346583
0.97685403963
0.976854037113
0.979018560549
0.972539446538
0.972539433917
0.974694339378
0.991577515643
0.991577516708
0.992681365664
0.984996089117
0.984996088698
0.988276418328
0.981187966053
0.981187965984
0.98336235069
0.976854033775
0.976854030568
0.979018559181
0.972539424537
0.972539418271
0.974694328003
0.991577515164
0.991577514373
0.992681362844
0.98499608836
0.98499608638
0.988276415583
0.981187964871
0.981187963505
0.9833623486
0.976854027923
0.976854025907
0.979018555718
0.972539414451
0.972539412312
0.974694322356
0.991577511664
0.991577510131
0.992681358832
0.984996085871
0.984996082309
0.988276407476
0.98118796203
0.981187960127
0.983362345141
0.976854024392
0.97685402314
0.97901855265
0.972539411227
0.972539410736
0.974694320002
0.991577490667
0.991577467642
0.99268132226
0.984996079826
0.984996055365
0.988276312333
0.981187956862
0.981187950475
0.983362330081
0.976854021841
0.976854020153
0.979018547145
0.972539410528
0.972539410402
0.97469431854
0.991577160658
0.991576850258
0.992680722774
0.984996035588
0.984995916053
0.988275619708
0.981187938733
0.981187921069
0.983362263233
0.976854017858
0.976854015213
0.979018534701
0.972539410265
0.972539410145
0.974694316814
0.991574007265
0.991572051179
0.992674428895
0.984995857204
0.984995754342
0.988274284603
0.981187902653
0.981187895745
0.983362178427
0.976854013329
0.976854014094
0.979018527817
0.972539410211
0.972539410734
0.974694317159
0.993341689598
0.995336063283
0.995336093492
0.996541620611
0.996546366332
0.989091126545
0.990734346588
0.990734345545
0.99073436132
0.990734348057
0.989091126625
0.993066913967
0.991282697301
0.991282734165
0.989091116226
0.990734278744
0.990734366565
0.990733715357
0.990734169625
0.989091108806
0.992930076858
0.991282424357
0.99128146679
0.98936525311
0.990460087868
0.990733611519
0.990463538881
0.99046136909
0.989366039105
0.992922355487
0.991556443671
0.991560378856
0.989370485455
0.990468977222
0.990466315053
0.990472599028
0.990471102092
0.989371793472
0.992675776401
0.991572624596
0.991574729767
0.989373835921
0.990474145292
0.990473563739
0.990474659094
0.990474477664
0.989374082638
0.99268099721
0.991577117028
0.991577323349
0.989374335932
0.990474801429
0.990474753959
0.990474834096
0.990474824032
0.989374354762
0.992681353895
0.991577501645
0.991577511775
0.989374367814
0.990474839267
0.990474838085
0.990474838703
0.990474839232
0.989374367773
0.992681365289
0.991577516569
0.991577515942
0.989374365894
0.990474837224
0.990474837989
0.990474835618
0.99047483645
0.989374365156
0.992681362038
0.991577513576
0.991577512712
0.989374361925
0.990474833005
0.990474834575
0.990474824744
0.990474830217
0.989374359401
0.992681356487
0.991577507384
0.99157750191
0.989374326269
0.990474791417
0.99047481366
0.990474665524
0.990474747894
0.989374290518
0.992681281112
0.991577421388
0.991577331109
0.989373914637
0.990474254307
0.990474515566
0.990473148425
0.99047382169
0.989373607195
0.992680139907
0.991576307665
0.991575405931
0.989371815002
0.990470948913
0.99047218268
0.990468642116
0.99046963417
0.989371103746
0.992670579588
0.991569741014
0.991567760948
0.997093231918
0.997094568111
0.997584217991
0.992380294832
0.992380295077
0.993066885761
0.987177595409
0.987177595434
0.988543992755
0.982817442852
0.982817442913
0.983905672058
0.968244042276
0.968244042086
0.970389414808
0.992380661774
0.992380910884
0.992931186033
0.987177596813
0.987177599849
0.988543992679
0.982817444146
0.98281744568
0.983905674967
0.968244041566
0.968244040491
0.970389410768
0.987177722584
0.987177895246
0.988271040646
0.968244038489
0.968244035027
0.970389398818
0.987179054076
0.987179524188
0.988274033502
0.968244029328
0.968244019955
0.970389375273
0.987180502141
0.987180662369
0.988276051701
0.968244003881
0.968243977282
0.970389338818
0.98718086203
0.987180881163
0.988276394987
0.968243941158
0.96824391426
0.970389298227
0.987180897417
0.987180897911
0.988276418906
0.968243900077
0.968243893726
0.970389279066
0.987180896703
0.987180896061
0.988276417023
0.968243891893
0.968243892016
0.970389274098
0.987180893922
0.987180892864
0.98827641343
0.968243893006
0.968243894164
0.970389273946
0.987180883042
0.987180873192
0.988276385896
0.968243895279
0.968243896201
0.970389274722
0.987180772304
0.987180690676
0.988276100629
0.96824389693
0.968243897461
0.970389275316
0.987180206947
0.987179994616
0.988274855605
0.968243897847
0.968243898132
0.970389275928
0.998681163976
0.993341666674
0.99416646597
0.994166464222
0.994176442686
0.994169273861
0.993342217173
0.993345059757
0.99418401561
0.994179127636
0.995473788888
0.996472663926
0.996472643302
0.996476238028
0.996472667592
0.995473789623
0.993067174596
0.992380404054
0.992380506108
0.995665149566
0.995663628119
0.998750247736
0.995339736932
0.99444568839
0.994458079902
0.994441735659
0.994443652965
0.995338056622
0.993341998715
0.994167991568
0.994166628766
0.996546744242
0.995475851757
0.996476736306
0.99547785521
0.994042703066
0.994184437926
0.993484870278
0.995360676877
0.994470689952
0.994465144854
0.994462729761
0.994470512714
0.995361739261
0.99566405267
0.996134983527
0.996175963068
0.996541575133
0.997025070754
0.997024230732
0.99702852245
0.997025384232
0.99654157834
0.997586683893
0.997095051957
0.997099896749
0.991282691943
0.991831341766
0.991831341498
0.991831345302
0.991831342667
0.991282692492
0.993066886478
0.992380296092
0.992380299782
0.984995106283
0.986085746984
0.986085746969
0.986085747386
0.986085747059
0.98499510633
0.988543992801
0.987177595533
0.987177595855
0.980644593895
0.981730417363
0.981730417252
0.981730418132
0.981730417631
0.980644594256
0.983905672131
0.98281744307
0.982817443413
0.984995110124
0.986085752019
0.986085748518
0.986085785218
0.98608576189
0.984995116931
0.988543994849
0.987177610884
0.987177638461
0.98390567933
0.982817448741
0.982817454421
0.984995217068
0.986085939744
0.986085839523
0.986086303853
0.986086095867
0.98499529661
0.98827153811
0.987178183922
0.987178585169
0.984995635043
0.98608678351
0.986086542956
0.986087173148
0.986086998801
0.984995744874
0.988274790519
0.987179938187
0.987180265499
0.984995969002
0.986087393147
0.986087301286
0.986087496058
0.986087456547
0.984996019619
0.988276216948
0.987180764867
0.987180826657
0.984996078765
0.986087532836
0.986087519767
0.986087543124
0.98608753983
0.984996085043
0.988276409021
0.987180890943
0.987180895537
0.984996089212
0.986087544864
0.986087544551
0.986087544252
0.986087544714
0.984996089292
0.988276418803
0.987180897753
0.987180897289
0.984996087605
0.986087543094
0.986087543721
0.986087541822
0.986087542491
0.984996087168
0.988276416326
0.987180895407
0.987180894714
0.984996084929
0.986087540222
0.986087541128
0.98608753687
0.986087538969
0.984996084038
0.988276411338
0.987180891225
0.987180888349
0.98499607527
0.986087526696
0.986087533236
0.986087495715
0.986087515218
0.984996067751
0.988276359539
0.987180855342
0.987180824182
0.984996006956
0.986087415779
0.986087464075
0.986087256214
0.986087346654
0.984995966075
0.988275901198
0.98718057044
0.987180407123
0.98499580298
0.986087042151
0.986087149449
0.986086933659
0.986086959354
0.984995762783
0.988274490456
0.987179816968
0.987179737302
0.994166535517
0.994166468941
0.993341667833
0.995336094269
0.994441553946
0.994441626355
0.99444154911
0.994441550893
0.995336093894
0.997100403341
0.997109672965
0.996542082917
0.997036557463
0.997028876177
0.997030050979
0.997039815626
0.996542331289
0.992380311398
0.992380341653
0.993067063417
0.991282704158
0.991831367195
0.991831352097
0.997369428065
0.997370223316
0.997577824774
0.963967515056
0.963967515875
0.966103413068
0.959709868833
0.959709869986
0.961836338654
0.963967517794
0.963967521027
0.966103414833
0.959709873047
0.959709877618
0.961836346106
0.982817464025
0.982817478548
0.98390573267
0.963967526086
0.963967533625
0.966103417867
0.963967544475
0.96396755833
0.966103417414
0.963967569667
0.96396754953
0.966103373758
0.963967371852
0.963967316323
0.966103262914
0.963967325633
0.963967330783
0.966103248371
0.96396734212
0.963967347715
0.966103253522
0.963967353839
0.963967357043
0.966103258904
0.963967360198
0.963967361898
0.966103262342
0.963967363484
0.963967364307
0.966103264205
0.963967364977
0.963967365237
0.966103264988
0.997653075905
0.998129728213
0.998128685937
0.994012636739
0.99401878296
0.993472338494
0.993464728649
0.994007044706
0.994008864383
0.995473788246
0.9958869868
0.995886986724
0.995887284763
0.995887098564
0.995473799241
0.997113677778
0.997084855462
0.989091126482
0.989638563094
0.989638563078
0.989638564283
0.989638564147
0.989091126855
0.989091124824
0.989638560019
0.989638563411
0.992925144764
0.992377545152
0.992376344268
0.995625075093
0.996122018668
0.996122425234
0.999306387018
0.999305281111
0.995300453019
0.995017147413
0.995030276135
0.994992004944
0.994992148276
0.995335927897
0.995473382426
0.995884697442
0.995887161048
0.995907056831
0.995925806027
0.995583217155
0.995104959864
0.994563614846
0.994554661823
0.994594924984
0.994577519966
0.995125367662
0.993477070992
0.994027139348
0.994035890672
0.996123693928
0.99612697844
0.995640750084
0.9945497092
0.994547496586
0.995086475837
0.996541568333
0.996748383138
0.996748372004
0.996748799809
0.996748655447
0.996541596753
0.997380287288
0.997389445756
0.991282772474
0.991831584946
0.991831506455
0.991831435736
0.991831601904
0.991282749316
0.992931645533
0.992381096845
0.992380887143
0.995336096735
0.994991958018
0.994991969552
0.994991947162
0.994991947219
0.995336093511
0.997390164816
0.9973908337
0.99654167399
0.99674911876
0.996748848685
0.996758503324
0.996757078349
0.996544345843
0.989638563243
0.989638563139
0.989091126502
0.990734345913
0.990186302864
0.990186303141
0.990186302706
0.990186302747
0.990734345639
0.990734355359
0.990186306147
0.990186307591
0.990186303709
0.990186304709
0.990734350845
0.989091126742
0.989638563769
0.989638563446
0.991831440637
0.991831395453
0.991282716171
0.990734340856
0.990186287228
0.990186254778
0.990186307581
0.990186302727
0.990734364429
0.990186202719
0.990186135302
0.990734022361
0.992380116999
0.992378900747
0.992927719739
0.991282117652
0.991830402723
0.991831020843
0.991829086665
0.991829711459
0.991281776948
0.997093434891
0.997300970756
0.997300354972
0.997304216943
0.997301473946
0.997093602186
0.997578788277
0.997370872404
0.997374361411
0.998129321284
0.997655526426
0.998682413059
0.998198095802
0.998197727846
0.998198616973
0.998682570579
0.994166464807
0.993891455897
0.993891456865
0.993891455405
0.993891455529
0.994166464369
0.995886989257
0.995886986905
0.995473788278
0.996472648112
0.996024757962
0.99602476093
0.996024757673
0.996024757805
0.996472646715
0.996473100411
0.996024937357
0.996025430608
0.996024765575
0.996024848613
0.996472943881
0.995473796315
0.995887047129
0.995886992788
0.996217393875
0.996226461114
0.998751484569
0.999236262737
0.999235880267
0.998751199681
0.994997675559
0.99500568421
0.995282849207
0.994448912144
0.994727285813
0.994722148565
0.994441987598
0.994717125518
0.99471687093
0.99471918857
0.994717755696
0.99444253846
0.995336040831
0.994992647238
0.994994048935
0.993891578545
0.993891716825
0.994166828901
0.996539830597
0.99701609048
0.995888716388
0.99588372376
0.995473449737
0.99647126243
0.996018743769
0.996025884569
0.996025400145
0.996021294387
0.996479522522
0.996063083316
0.996196083269
0.996029020277
0.996047243182
0.995492894562
0.995911422925
0.995891779745
0.996748449817
0.996748392551
0.996541569279
0.997024460521
0.996817360849
0.996817472458
0.996817320399
0.996817342378
0.997024356478
0.99702712094
0.996817868814
0.996818141845
0.996817532172
0.996817774525
0.997026623965
0.996541591563
0.996748606555
0.996748480689
0.997375760433
0.997378341072
0.997096925884
0.997308817998
0.997305393213
0.997317328233
0.997310694872
0.997097698852
0.994166494067
0.99389147924
0.993891510741
0.99389145931
0.993891465264
0.994166476312
0.994991949195
0.994991952169
0.995336096725
0.994441561612
0.99471672015
0.994716714006
0.994716772983
0.994716735226
0.994441580499
0.99444154926
0.994716710203
0.994716710083
0.994716711532
0.994716710566
0.994441549706
0.995336093534
0.9949919474
0.994991947901
0.997101864473
0.997319414286
0.99731819585
0.997326973485
0.997320027547
0.997102774441
0.997391126283
0.997395840044
0.996750846564
0.996749326445
0.996541719595
0.997030853754
0.996818969352
0.996821244163
0.996818227867
0.996818654008
0.997030072286
0.997048189991
0.99682916835
0.996828958271
0.996822588605
0.996827700459
0.997048876617
0.99654368347
0.996755687116
0.996751771354
0.997507576788
0.997507744024
0.99757681461
0.978476547236
0.978476547379
0.979559971032
0.978476549321
0.978476550747
0.979559974999
0.98281754875
0.982817578071
0.983905934424
0.997646874539
0.997853621428
0.997852675431
0.995473788226
0.995611502007
0.995611502004
0.995611499813
0.995611536176
0.995473788426
0.99565415199
0.995954944272
0.995938330428
0.999592175088
0.999593029307
0.995198383535
0.995198370394
0.995335975834
0.99547358913
0.995611217885
0.995611401657
0.995042375432
0.995051568023
0.995351523427
0.996541567384
0.996610496688
0.99661049635
0.996610597491
0.996610585302
0.996541607554
0.979559971428
0.978476547745
0.978476548316
0.980644597701
0.981730420594
0.981730419025
0.981730427751
0.981730423295
0.980644600499
0.98064462124
0.981730444359
0.981730434639
0.981730469903
0.981730456563
0.980644633474
0.983905771608
0.982817498133
0.982817521903
0.995336084295
0.995198411123
0.995198401695
0.995198417809
0.995198417813
0.995336093494
0.996541630731
0.996610630286
0.996610611505
0.996616862672
0.996616374658
0.996545775367
0.997093261845
0.997162299112
0.99716225304
0.997164264454
0.997163664578
0.997094162615
0.997581973223
0.997512548208
0.997514527985
0.998473984928
0.998474690398
0.998681734829
0.994173669835
0.993895650053
0.993897170294
0.993893202817
0.993894282582
0.994171188743
0.99389865968
0.99389995716
0.994181389684
0.995611503136
0.995611502487
0.995473788522
0.996472656191
0.996300360013
0.996300361941
0.996300356778
0.996300356847
0.99647264377
0.996474497144
0.996301536665
0.996302258828
0.99630036627
0.996300378056
0.996472697691
0.995473790983
0.995611507257
0.995611504518
0.99596423893
0.995962174459
0.995662351809
0.996229876716
0.996230683262
0.99622983841
0.996226120367
0.995657388103
0.995956128432
0.995962648033
0.998750798416
0.998958323516
0.99895767818
0.99474261674
0.994734463888
0.994453224204
0.994167233849
0.993891981556
0.993892450062
0.996546342863
0.996752611967
0.996756884966
0.996286990405
0.996290416243
0.996302917984
0.996303010509
0.99647716516
0.996291888646
0.996292686559
0.99446654097
0.994756417631
0.994750308368
0.994762286511
0.994760427569
0.994469161701
0.995358896899
0.995057286968
0.995059712897
0.996610514043
0.99661050837
0.99654157259
0.997024812347
0.996955591934
0.996955747507
0.996955247097
0.996955257822
0.997024249135
0.997028105567
0.99695759676
0.996957855967
0.996955938389
0.996956163088
0.997025749251
0.996541582204
0.996610529758
0.996610521178
0.997516463645
0.997517591473
0.997594454339
0.99709560553
0.997165739196
0.997164963048
0.997171987528
0.997171067168
0.997099260031
0.995198418413
0.995198418853
0.995336094906
0.995336093688
0.995198418
0.995198418173
0.997100830996
0.997173176883
0.997172662682
0.997182972246
0.997179263401
0.997106467432
0.996611387274
0.99661110418
0.996541909696
0.997033945773
0.996962022124
0.996964035442
0.996958088447
0.996958318951
0.997029201559
0.997036411215
0.996969289688
0.996964201948
0.996966566234
0.996969411597
0.997043402267
0.996542672614
0.996612309307
0.996611782681
0.997369547264
0.997438650917
0.997438505401
0.997439473258
0.997438956844
0.99736979869
0.997577192399
0.997508094435
0.997508684789
0.997856656967
0.997854267291
0.997647827127
0.998129569042
0.997923018931
0.997924619909
0.997921663026
0.997922491545
0.998129274456
0.995611502036
0.995611502016
0.995473788232
0.995886986753
0.995749234854
0.995749234885
0.995749234837
0.995749234841
0.995886986732
0.995887252582
0.995749348778
0.995749325378
0.99574929577
0.995749327042
0.995887172524
0.99547379887
0.995611539549
0.995611530584
0.997401181546
0.997124599525
0.997322034543
0.997333237017
0.997122230507
0.999306036783
0.999520776275
0.999520731654
0.999513011551
0.999519915685
0.999305846033
0.999592479357
0.999582353689
0.995610713385
0.99561095934
0.995473465551
0.995885884616
0.995748413474
0.995747843516
0.995749198271
0.995748901739
0.995886732987
0.996610498831
0.99661049747
0.996541567729
0.996748377079
0.996679433478
0.996679436417
0.996679431038
0.996679431781
0.996748373564
0.996748752841
0.996679619307
0.996679643697
0.996679570577
0.996679595059
0.996748704714
0.996541602083
0.996610573576
0.996610561925
0.997384153353
0.997450739109
0.997450933903
0.997454772884
0.997453796436
0.997387715194
0.995198419191
0.995198417618
0.995336093927
0.995336093499
0.995198417819
0.995198417836
0.99739047523
0.997455179168
0.997455080251
0.997455262701
0.997455223636
0.997390654076
0.996610706358
0.996610659084
0.996541646866
0.99674898984
0.996679753974
0.996679833712
0.996679670357
0.996679704186
0.996748907288
0.996758836338
0.996687440867
0.996687640356
0.996685570948
0.996686655063
0.996758228294
0.996545067975
0.996615587198
0.996614675585
0.997162563697
0.997162397373
0.997093326038
0.997300641702
0.997231504099
0.99723174472
0.99723129478
0.997231361792
0.997300446982
0.997303113479
0.997233323357
0.997234158974
0.99723211303
0.997232635572
0.997302185473
0.997093841417
0.997163181914
0.997162818691
0.997509587434
0.99751086844
0.997580155706
0.997371788927
0.997441378576
0.997440262737
0.997444499418
0.997442826041
0.997372976854
0.997924849972
0.997857263322
0.998478726959
0.998405817536
0.998198307152
0.998405623036
0.99840492205
0.99840671198
0.998406046598
0.998198591662
0.998682047309
0.998475123354
0.998476089537
0.995886987761
0.995749235572
0.995749236616
0.995749234958
0.995749235136
0.995886987154
0.995473788352
0.995611502204
0.995611502085
0.996300357971
0.996300358825
0.996472653897
0.996024758294
0.996162548695
0.996162548226
0.996162551633
0.996162549597
0.996024759056
0.996024757688
0.996162547721
0.996162547689
0.996162547955
0.996162547801
0.996024757726
0.996472644178
0.996300357029
0.996300357384
0.996300659049
0.996300990827
0.996474014125
0.996025079637
0.996163033445
0.996162800022
0.996163776092
0.996163380237
0.996025266656
0.996024776415
0.996162569653
0.996162556768
0.996162666891
0.996162600084
0.996024800218
0.996472724246
0.996300409677
0.99630048749
0.995611520149
0.995611512217
0.995473793222
0.995887016677
0.99574925341
0.995749270156
0.995749238964
0.995749243876
0.995887000586
0.998965374628
0.998958775078
0.998751094439
0.999235944269
0.999027995789
0.999033784048
0.99902692882
0.999027544385
0.999235882785
0.998949055059
0.996743146053
0.996545889942
0.99682600112
0.996811071458
0.995886093215
0.995749279989
0.995751310257
0.99574752602
0.995747961758
0.995884169924
0.995473805938
0.995611071415
0.995610669742
0.996290510673
0.996282381356
0.996019204981
0.996152357698
0.996151763527
0.996163070532
0.996158295087
0.99602238227
0.996024884269
0.996163595403
0.996163995381
0.996158170948
0.996161916032
0.996023559135
0.996476900002
0.996301846684
0.996298275592
0.996748425111
0.996679456889
0.996679469006
0.996679440993
0.996679447668
0.996748406247
0.996541570665
0.996610504065
0.996610500957
0.996955382522
0.996955471225
0.997024610061
0.996817387658
0.996886403828
0.996886353834
0.996886560884
0.996886472187
0.996817424459
0.996817323517
0.996886283897
0.996886277964
0.996886319291
0.996886296952
0.996817330459
0.997024288879
0.996955281186
0.996955321033
0.99695700403
0.996957308213
0.997027627606
0.996817963576
0.996887460253
0.996887286321
0.99688778001
0.996887626521
0.99681805506
0.996817603321
0.996886800638
0.996886670586
0.996887113209
0.996886949232
0.996817684838
0.997026163204
0.996956419106
0.996956702513
0.996610550486
0.996610539628
0.996541586656
0.996748559989
0.996679523373
0.996679546389
0.996679484201
0.996679502427
0.99674851761
0.997376902142
0.997447206724
0.997446112653
0.997452225861
0.997447212742
0.997377629392
0.997585134787
0.997519913945
0.997512595349
0.997167566719
0.997166593753
0.997096227287
0.997307588915
0.997237134653
0.997238341405
0.997235098212
0.997236090012
0.997306524207
0.997315757096
0.997243359734
0.997244610648
0.997239869477
0.99724166981
0.997313309686
0.997098503502
0.997169918209
0.997168694535
0.995336095791
0.995198419255
0.995198419789
0.99519841786
0.995198417916
0.995336093585
0.997174275956
0.997173660836
0.997101274319
0.997319028596
0.997246435766
0.997246984248
0.997245430587
0.997245978756
0.99731868221
0.997323224309
0.997251770894
0.997255737781
0.997247840567
0.997249299732
0.997321144064
0.997104224251
0.997176780166
0.997175226871
0.99739171505
0.997455474837
0.997455327828
0.997456696232
0.99745584081
0.997393004668